Setting SGE environment for SCC

     Program PWSCF v.5.1.2 starts on  5Jul2015 at 18:43:26 

     This program is part of the open-source Quantum ESPRESSO suite
     for quantum simulation of materials; please cite
         "P. Giannozzi et al., J. Phys.:Condens. Matter 21 395502 (2009);
          URL http://www.quantum-espresso.org", 
     in publications or presentations arising from this work. More details at
     http://www.quantum-espresso.org/quote

     Parallel version (MPI), running on    32 processors
     R & G space division:  proc/nbgrp/npool/nimage =      32
     Reading input from hollow.H2.Au5859.d.2.0.phi.0.psi.90.in
Warning: card &IONS ignored
Warning: card / ignored
Warning: card &CELL ignored
Warning: card / ignored

     Current dimensions of program PWSCF are:
     Max number of different atomic species (ntypx) = 10
     Max number of k-points (npk) =  40000
     Max angular momentum in pseudopotentials (lmaxx) =  3

     IMPORTANT: XC functional enforced from input :
     Exchange-correlation      = VDW-DF ( 1  4  4  0 1 0)
     Any further DFT definition will be discarded
     Please, verify this is what you really want


     Subspace diagonalization in iterative solution of the eigenvalue problem:
     a serial algorithm will be used


     Parallelization info
     --------------------
     sticks:   dense  smooth     PW     G-vecs:    dense   smooth      PW
     Min         578     289     74               118518    41891    5486
     Max         579     290     75               118533    41932    5497
     Sum       18505    9265   2385              3792731  1341081  175711


     Title: 
     hollow.H2.Au5859.d.2.0.phi.0.psi.90                                        


     bravais-lattice index     =            8
     lattice parameter (alat)  =      24.1233  a.u.
     unit-cell volume          =   28076.2361 (a.u.)^3
     number of atoms/cell      =           75
     number of atomic types    =            3
     number of electrons       =       800.00
     number of Kohn-Sham states=          480
     kinetic-energy cutoff     =      50.0000  Ry
     charge density cutoff     =     400.0000  Ry
     convergence threshold     =      1.0E-08
     mixing beta               =       0.7000
     number of iterations used =            8  plain     mixing
     Exchange-correlation      = VDW-DF ( 1  4  4  0 1 0)

     celldm(1)=  24.123277  celldm(2)=   1.000000  celldm(3)=   2.000000
     celldm(4)=   0.000000  celldm(5)=   0.000000  celldm(6)=   0.000000

     crystal axes: (cart. coord. in units of alat)
               a(1) = (   1.000000   0.000000   0.000000 )  
               a(2) = (   0.000000   1.000000   0.000000 )  
               a(3) = (   0.000000   0.000000   2.000000 )  

     reciprocal axes: (cart. coord. in units 2 pi/alat)
               b(1) = (  1.000000  0.000000  0.000000 )  
               b(2) = (  0.000000  1.000000  0.000000 )  
               b(3) = (  0.000000  0.000000  0.500000 )  


     PseudoPot. # 1 for Au read from file:
     /home/scc/andrejb/qe/pseudo/Au.pbe-nd-van.UPF
     MD5 check sum: 458681b50f36d87ef23c61b04bba420a
     Pseudo is Ultrasoft + core correction, Zval = 11.0
     Generated by new atomic code, or converted to UPF format
     Using radial grid of  985 points,  3 beta functions with: 
                l(1) =   1
                l(2) =   2
                l(3) =   2
     Q(r) pseudized with  8 coefficients,  rinner =    1.100   1.100   1.100
                                                       1.100   1.100

     PseudoPot. # 2 for H  read from file:
     /home/scc/andrejb/qe/pseudo/H.pbe-van_ak.UPF
     MD5 check sum: 403db7282739603aa925980fa9b8608d
     Pseudo is Ultrasoft, Zval =  1.0
     Generated by new atomic code, or converted to UPF format
     Using radial grid of  615 points,  1 beta functions with: 
                l(1) =   0
     Q(r) pseudized with  8 coefficients,  rinner =    0.800

     PseudoPot. # 3 for O  read from file:
     /home/scc/andrejb/qe/pseudo/O.pbe-van_ak.UPF
     MD5 check sum: 4b8c549914a63cae506c6ff22b5af4fe
     Pseudo is Ultrasoft, Zval =  6.0
     Generated by new atomic code, or converted to UPF format
     Using radial grid of  737 points,  4 beta functions with: 
                l(1) =   0
                l(2) =   0
                l(3) =   1
                l(4) =   1
     Q(r) pseudized with  8 coefficients,  rinner =    0.800   0.800   0.800


     vdW kernel table read from file vdW_kernel_table
     MD5 check sum: 48e77a2e26edf626eeb0eaa751ad5cac

     atomic species   valence    mass     pseudopotential
        Au            11.00   196.96657     Au( 1.00)
        H              1.00     1.01000     H ( 1.00)
        O              6.00    16.00000     O ( 1.00)

     No symmetry found



   Cartesian axes

     site n.     atom                  positions (alat units)
         1           O   tau(   1) = (   0.1840006   0.0937550   0.6704735  )
         2           H   tau(   2) = (   0.1666051   0.1666105   0.6559864  )
         3           H   tau(   3) = (   0.1341739   0.0535643   0.6289954  )
         4           Au  tau(   4) = (   0.0000000   0.0000000   0.0000000  )
         5           Au  tau(   5) = (   0.3332217   0.0000000   0.0000000  )
         6           Au  tau(   6) = (   0.6664434   0.0000000   0.0000000  )
         7           Au  tau(   7) = (   0.1666109   0.1666109   0.0000000  )
         8           Au  tau(   8) = (   0.4998326   0.1666109   0.0000000  )
         9           Au  tau(   9) = (   0.8330542   0.1666109   0.0000000  )
        10           Au  tau(  10) = (   0.0000000   0.3332217   0.0000000  )
        11           Au  tau(  11) = (   0.3332217   0.3332217   0.0000000  )
        12           Au  tau(  12) = (   0.6664434   0.3332217   0.0000000  )
        13           Au  tau(  13) = (   0.1666109   0.4998326   0.0000000  )
        14           Au  tau(  14) = (   0.4998326   0.4998326   0.0000000  )
        15           Au  tau(  15) = (   0.8330542   0.4998326   0.0000000  )
        16           Au  tau(  16) = (   0.0000000   0.6664434   0.0000000  )
        17           Au  tau(  17) = (   0.3332217   0.6664434   0.0000000  )
        18           Au  tau(  18) = (   0.6664434   0.6664434   0.0000000  )
        19           Au  tau(  19) = (   0.1666109   0.8330542   0.0000000  )
        20           Au  tau(  20) = (   0.4998326   0.8330542   0.0000000  )
        21           Au  tau(  21) = (   0.8330542   0.8330542   0.0000000  )
        22           Au  tau(  22) = (   0.1666109   0.0000000   0.1666109  )
        23           Au  tau(  23) = (   0.4998326   0.0000000   0.1666109  )
        24           Au  tau(  24) = (   0.8330542   0.0000000   0.1666109  )
        25           Au  tau(  25) = (   0.0000000   0.1666109   0.1666109  )
        26           Au  tau(  26) = (   0.3332217   0.1666109   0.1666109  )
        27           Au  tau(  27) = (   0.6664434   0.1666109   0.1666109  )
        28           Au  tau(  28) = (   0.1666109   0.3332217   0.1666109  )
        29           Au  tau(  29) = (   0.4998326   0.3332217   0.1666109  )
        30           Au  tau(  30) = (   0.8330542   0.3332217   0.1666109  )
        31           Au  tau(  31) = (   0.0000000   0.4998326   0.1666109  )
        32           Au  tau(  32) = (   0.3332217   0.4998326   0.1666109  )
        33           Au  tau(  33) = (   0.6664434   0.4998326   0.1666109  )
        34           Au  tau(  34) = (   0.1666109   0.6664434   0.1666109  )
        35           Au  tau(  35) = (   0.4998326   0.6664434   0.1666109  )
        36           Au  tau(  36) = (   0.8330542   0.6664434   0.1666109  )
        37           Au  tau(  37) = (   0.0000000   0.8330542   0.1666109  )
        38           Au  tau(  38) = (   0.3332217   0.8330542   0.1666109  )
        39           Au  tau(  39) = (   0.6664434   0.8330542   0.1666109  )
        40           Au  tau(  40) = (  -0.0000182  -0.0000182   0.3335478  )
        41           Au  tau(  41) = (   0.3332215  -0.0000181   0.3335473  )
        42           Au  tau(  42) = (   0.6664447  -0.0000183   0.3335481  )
        43           Au  tau(  43) = (  -0.0000181   0.3332215   0.3335473  )
        44           Au  tau(  44) = (   0.3332215   0.3332215   0.3335468  )
        45           Au  tau(  45) = (   0.6664445   0.3332215   0.3335477  )
        46           Au  tau(  46) = (  -0.0000183   0.6664447   0.3335481  )
        47           Au  tau(  47) = (   0.3332215   0.6664445   0.3335477  )
        48           Au  tau(  48) = (   0.6664446   0.6664446   0.3335486  )
        49           Au  tau(  49) = (   0.1666097   0.1666097   0.3335483  )
        50           Au  tau(  50) = (   0.4998320   0.1666098   0.3335477  )
        51           Au  tau(  51) = (   0.8330732   0.1666096   0.3335480  )
        52           Au  tau(  52) = (   0.1666098   0.4998320   0.3335477  )
        53           Au  tau(  53) = (   0.4998322   0.4998322   0.3335470  )
        54           Au  tau(  54) = (   0.8330731   0.4998322   0.3335474  )
        55           Au  tau(  55) = (   0.1666096   0.8330732   0.3335480  )
        56           Au  tau(  56) = (   0.4998322   0.8330731   0.3335474  )
        57           Au  tau(  57) = (   0.8330731   0.8330731   0.3335478  )
        58           Au  tau(  58) = (   0.1666104  -0.0000111   0.4993095  )
        59           Au  tau(  59) = (   0.4998323  -0.0000112   0.4993099  )
        60           Au  tau(  60) = (   0.8330660  -0.0000111   0.4993009  )
        61           Au  tau(  61) = (  -0.0000111   0.1666104   0.4993095  )
        62           Au  tau(  62) = (   0.3332213   0.1666106   0.4993185  )
        63           Au  tau(  63) = (   0.6664437   0.1666106   0.4993187  )
        64           Au  tau(  64) = (   0.1666106   0.3332213   0.4993185  )
        65           Au  tau(  65) = (   0.4998324   0.3332216   0.4993185  )
        66           Au  tau(  66) = (   0.8330658   0.3332215   0.4993102  )
        67           Au  tau(  67) = (  -0.0000112   0.4998323   0.4993099  )
        68           Au  tau(  68) = (   0.3332216   0.4998324   0.4993185  )
        69           Au  tau(  69) = (   0.6664437   0.4998325   0.4993187  )
        70           Au  tau(  70) = (   0.1666106   0.6664437   0.4993187  )
        71           Au  tau(  71) = (   0.4998325   0.6664437   0.4993187  )
        72           Au  tau(  72) = (   0.8330658   0.6664438   0.4993102  )
        73           Au  tau(  73) = (  -0.0000111   0.8330660   0.4993009  )
        74           Au  tau(  74) = (   0.3332215   0.8330658   0.4993102  )
        75           Au  tau(  75) = (   0.6664438   0.8330658   0.4993102  )

     number of k points=     6  Marzari-Vanderbilt smearing, width (Ry)=  0.0200
                       cart. coord. in units 2pi/alat
        k(    1) = (   0.2500000   0.2500000   0.0833333), wk =   0.3333333
        k(    2) = (   0.2500000   0.2500000  -0.2500000), wk =   0.3333333
        k(    3) = (  -0.2500000  -0.2500000   0.0833333), wk =   0.3333333
        k(    4) = (  -0.2500000   0.2500000  -0.0833333), wk =   0.3333333
        k(    5) = (   0.2500000  -0.2500000  -0.0833333), wk =   0.3333333
        k(    6) = (  -0.2500000   0.2500000   0.2500000), wk =   0.3333333

     Dense  grid:  3792731 G-vectors     FFT dimensions: ( 160, 160, 320)

     Smooth grid:  1341081 G-vectors     FFT dimensions: ( 120, 120, 225)

     Largest allocated arrays     est. size (Mb)     dimensions
        Kohn-Sham Wavefunctions        38.58 Mb     (    5267,  480)
        NL pseudopotentials            76.03 Mb     (    5267,  946)
        Each V/rho on FFT grid          3.91 Mb     (  256000)
        Each G-vector array             0.90 Mb     (  118520)
        G-vector shells                 0.08 Mb     (   10286)
     Largest temporary arrays     est. size (Mb)     dimensions
        Auxiliary wavefunctions       154.31 Mb     (    5267, 1920)
        Each subspace H/S matrix       56.25 Mb     (    1920, 1920)
        Each <psi_i|beta_j> matrix      6.93 Mb     (     946,  480)
        Arrays for rho mixing          31.25 Mb     (  256000,    8)

     Initial potential from superposition of free atoms
     Check: negative starting charge=   -1.945192

     starting charge  799.16392, renormalised to  800.00000

     negative rho (up, down):  1.947E+00 0.000E+00


     ************************************************************************
     *
     * You are using vdW-DF for exchange-correlation in this calculation.
     * Please cite the following three references that made this development
     * possible:
     *
     *   M. Dion, H. Rydberg, E. Schroder, D. C. Langreth, and
     *   B. I. Lundqvist, Phys. Rev. Lett. 92, 246401 (2004).
     *
     *   T. Thonhauser, V. R. Cooper, S. Li, A. Puzder, P. Hyldgaard, and
     *   D. C. Langreth, Phys. Rev. B 76, 125112 (2007).
     *
     *   G. Roman-Perez and J. M. Soler, Phys. Rev. Lett. 103, 096102 (2009).
     *
     *
     * If you are using vdW-DF2, please also cite:
     *
     *   K. Lee, E. D. Murray, L. Kong, B. I. Lundqvist, and
     *   D. C. Langreth, Phys. Rev. B 82, 081101(R) (2010).
     *
     *
     * If you are calculating the stress with vdW-DF, please also cite:
     *
     *   R. Sabatini, E. Kucukbenli, B. Kolb, T. Thonhauser, and
     *   S. de Gironcoli, J. Phys.: Condens. Matter 24, 424209 (2012).
     *
     ************************************************************************

     Carrying out vdW-DF run using the following parameters:

     Nqs =      20    Nr_points =    1024   r_max =   100.000
     q_mesh =
               0.00001000     0.04494208     0.09755937     0.15916263
               0.23128650     0.31572767     0.41458969     0.53033537
               0.66584808     0.82450364     1.01025438     1.22772762
               1.48234092     1.78043706     2.12944203     2.53805004
               3.01644009     3.57652955     4.23227104     5.00000000

     Gradients computed in reciprocal space

     ************************************************************************


     Starting wfc are  654 randomized atomic wfcs

     total cpu time spent up to now is      129.7 secs

     Self-consistent Calculation

     iteration #  1     ecut=    50.00 Ry     beta=0.70
     Davidson diagonalization with overlap
     ethr =  1.00E-02,  avg # of iterations =  3.0

     Threshold (ethr) on eigenvalues was too large:
     Diagonalizing with lowered threshold

     Davidson diagonalization with overlap
     ethr =  4.08E-04,  avg # of iterations =  2.0

     negative rho (up, down):  1.947E+00 0.000E+00

     total cpu time spent up to now is      581.5 secs

     total energy              =   -7423.04028359 Ry
     Harris-Foulkes estimate   =   -7425.98709830 Ry
     estimated scf accuracy    <       3.64321519 Ry

     iteration #  2     ecut=    50.00 Ry     beta=0.70
     Davidson diagonalization with overlap
     ethr =  4.55E-04,  avg # of iterations = 11.3

     negative rho (up, down):  1.942E+00 0.000E+00

     total cpu time spent up to now is     1382.5 secs

     total energy              =   -7415.58059378 Ry
     Harris-Foulkes estimate   =   -7432.32522071 Ry
     estimated scf accuracy    <      86.33433756 Ry

     iteration #  3     ecut=    50.00 Ry     beta=0.70
     Davidson diagonalization with overlap
     ethr =  4.55E-04,  avg # of iterations =  6.0

     negative rho (up, down):  1.954E+00 0.000E+00

     total cpu time spent up to now is     1859.6 secs

     total energy              =   -7424.46829219 Ry
     Harris-Foulkes estimate   =   -7425.79850544 Ry
     estimated scf accuracy    <       4.97667556 Ry

     iteration #  4     ecut=    50.00 Ry     beta=0.70
     Davidson diagonalization with overlap
     ethr =  4.55E-04,  avg # of iterations =  3.5

     negative rho (up, down):  1.957E+00 0.000E+00

     total cpu time spent up to now is     2103.8 secs

     total energy              =   -7424.85694122 Ry
     Harris-Foulkes estimate   =   -7425.55079654 Ry
     estimated scf accuracy    <       4.34635239 Ry

     iteration #  5     ecut=    50.00 Ry     beta=0.70
     Davidson diagonalization with overlap
     ethr =  4.55E-04,  avg # of iterations =  4.3

     negative rho (up, down):  1.964E+00 0.000E+00

     total cpu time spent up to now is     2367.1 secs

     total energy              =   -7425.12206605 Ry
     Harris-Foulkes estimate   =   -7425.38148527 Ry
     estimated scf accuracy    <       1.68532162 Ry

     iteration #  6     ecut=    50.00 Ry     beta=0.70
     Davidson diagonalization with overlap
     ethr =  2.11E-04,  avg # of iterations =  3.0

     negative rho (up, down):  1.967E+00 0.000E+00

     total cpu time spent up to now is     2602.7 secs

     total energy              =   -7425.20652796 Ry
     Harris-Foulkes estimate   =   -7425.26677039 Ry
     estimated scf accuracy    <       0.23256778 Ry

     iteration #  7     ecut=    50.00 Ry     beta=0.70
     Davidson diagonalization with overlap
     ethr =  2.91E-05,  avg # of iterations =  9.2

     negative rho (up, down):  1.970E+00 0.000E+00

     total cpu time spent up to now is     2928.2 secs

     total energy              =   -7425.22197275 Ry
     Harris-Foulkes estimate   =   -7425.25399033 Ry
     estimated scf accuracy    <       0.15251412 Ry

     iteration #  8     ecut=    50.00 Ry     beta=0.70
     Davidson diagonalization with overlap
     ethr =  1.91E-05,  avg # of iterations =  7.5

     negative rho (up, down):  1.972E+00 0.000E+00

     total cpu time spent up to now is     3236.6 secs

     total energy              =   -7425.22921148 Ry
     Harris-Foulkes estimate   =   -7425.24356695 Ry
     estimated scf accuracy    <       0.04982727 Ry

     iteration #  9     ecut=    50.00 Ry     beta=0.70
     Davidson diagonalization with overlap
     ethr =  6.23E-06,  avg # of iterations =  5.0

     negative rho (up, down):  1.972E+00 0.000E+00

     total cpu time spent up to now is     3523.4 secs

     total energy              =   -7425.23341276 Ry
     Harris-Foulkes estimate   =   -7425.23918778 Ry
     estimated scf accuracy    <       0.01786366 Ry

     iteration # 10     ecut=    50.00 Ry     beta=0.70
     Davidson diagonalization with overlap
     ethr =  2.23E-06,  avg # of iterations = 12.8

     negative rho (up, down):  1.972E+00 0.000E+00

     total cpu time spent up to now is     3908.4 secs

     total energy              =   -7425.23590352 Ry
     Harris-Foulkes estimate   =   -7425.23716656 Ry
     estimated scf accuracy    <       0.00312616 Ry

     iteration # 11     ecut=    50.00 Ry     beta=0.70
     Davidson diagonalization with overlap
     ethr =  3.91E-07,  avg # of iterations =  2.5

     negative rho (up, down):  1.973E+00 0.000E+00

     total cpu time spent up to now is     4166.1 secs

     total energy              =   -7425.23636150 Ry
     Harris-Foulkes estimate   =   -7425.23698126 Ry
     estimated scf accuracy    <       0.00180430 Ry

     iteration # 12     ecut=    50.00 Ry     beta=0.70
     Davidson diagonalization with overlap
     ethr =  2.26E-07,  avg # of iterations =  2.0

     negative rho (up, down):  1.973E+00 0.000E+00

     total cpu time spent up to now is     4391.9 secs

     total energy              =   -7425.23651247 Ry
     Harris-Foulkes estimate   =   -7425.23686552 Ry
     estimated scf accuracy    <       0.00168677 Ry

     iteration # 13     ecut=    50.00 Ry     beta=0.70
     Davidson diagonalization with overlap
     ethr =  2.11E-07,  avg # of iterations =  2.0

     negative rho (up, down):  1.973E+00 0.000E+00

     total cpu time spent up to now is     4619.3 secs

     total energy              =   -7425.23667187 Ry
     Harris-Foulkes estimate   =   -7425.23673548 Ry
     estimated scf accuracy    <       0.00024368 Ry

     iteration # 14     ecut=    50.00 Ry     beta=0.70
     Davidson diagonalization with overlap
     ethr =  3.05E-08,  avg # of iterations =  2.0

     negative rho (up, down):  1.973E+00 0.000E+00

     total cpu time spent up to now is     4850.6 secs

     total energy              =   -7425.23670253 Ry
     Harris-Foulkes estimate   =   -7425.23671895 Ry
     estimated scf accuracy    <       0.00005047 Ry

     iteration # 15     ecut=    50.00 Ry     beta=0.70
     Davidson diagonalization with overlap
     ethr =  6.31E-09,  avg # of iterations =  2.0

     negative rho (up, down):  1.973E+00 0.000E+00

     total cpu time spent up to now is     5073.5 secs

     total energy              =   -7425.23670508 Ry
     Harris-Foulkes estimate   =   -7425.23671598 Ry
     estimated scf accuracy    <       0.00004520 Ry

     iteration # 16     ecut=    50.00 Ry     beta=0.70
     Davidson diagonalization with overlap
     ethr =  5.65E-09,  avg # of iterations =  2.0

     negative rho (up, down):  1.973E+00 0.000E+00

     total cpu time spent up to now is     5296.4 secs

     total energy              =   -7425.23670618 Ry
     Harris-Foulkes estimate   =   -7425.23671695 Ry
     estimated scf accuracy    <       0.00006887 Ry

     iteration # 17     ecut=    50.00 Ry     beta=0.70
     Davidson diagonalization with overlap
     ethr =  5.65E-09,  avg # of iterations =  2.0

     negative rho (up, down):  1.973E+00 0.000E+00

     total cpu time spent up to now is     5514.9 secs

     total energy              =   -7425.23670860 Ry
     Harris-Foulkes estimate   =   -7425.23671452 Ry
     estimated scf accuracy    <       0.00002828 Ry

     iteration # 18     ecut=    50.00 Ry     beta=0.70
     Davidson diagonalization with overlap
     ethr =  3.54E-09,  avg # of iterations =  2.0

     negative rho (up, down):  1.973E+00 0.000E+00

     total cpu time spent up to now is     5740.5 secs

     total energy              =   -7425.23671086 Ry
     Harris-Foulkes estimate   =   -7425.23671273 Ry
     estimated scf accuracy    <       0.00000835 Ry

     iteration # 19     ecut=    50.00 Ry     beta=0.70
     Davidson diagonalization with overlap
     ethr =  1.04E-09,  avg # of iterations =  2.0

     negative rho (up, down):  1.973E+00 0.000E+00

     total cpu time spent up to now is     5976.8 secs

     total energy              =   -7425.23671152 Ry
     Harris-Foulkes estimate   =   -7425.23671205 Ry
     estimated scf accuracy    <       0.00000141 Ry

     iteration # 20     ecut=    50.00 Ry     beta=0.70
     Davidson diagonalization with overlap
     ethr =  1.76E-10,  avg # of iterations =  3.0

     negative rho (up, down):  1.973E+00 0.000E+00

     total cpu time spent up to now is     6209.8 secs

     total energy              =   -7425.23671161 Ry
     Harris-Foulkes estimate   =   -7425.23671185 Ry
     estimated scf accuracy    <       0.00000040 Ry

     iteration # 21     ecut=    50.00 Ry     beta=0.70
     Davidson diagonalization with overlap
     ethr =  4.95E-11,  avg # of iterations =  3.0

     negative rho (up, down):  1.973E+00 0.000E+00

     total cpu time spent up to now is     6450.2 secs

     total energy              =   -7425.23671161 Ry
     Harris-Foulkes estimate   =   -7425.23671172 Ry
     estimated scf accuracy    <       0.00000033 Ry

     iteration # 22     ecut=    50.00 Ry     beta=0.70
     Davidson diagonalization with overlap
     ethr =  4.12E-11,  avg # of iterations =  2.0

     negative rho (up, down):  1.973E+00 0.000E+00

     total cpu time spent up to now is     6671.2 secs

     total energy              =   -7425.23671163 Ry
     Harris-Foulkes estimate   =   -7425.23671167 Ry
     estimated scf accuracy    <       0.00000009 Ry

     iteration # 23     ecut=    50.00 Ry     beta=0.70
     Davidson diagonalization with overlap
     ethr =  1.14E-11,  avg # of iterations =  3.0

     negative rho (up, down):  1.973E+00 0.000E+00

     total cpu time spent up to now is     6933.0 secs

     total energy              =   -7425.23671162 Ry
     Harris-Foulkes estimate   =   -7425.23671167 Ry
     estimated scf accuracy    <       0.00000017 Ry

     iteration # 24     ecut=    50.00 Ry     beta=0.70
     Davidson diagonalization with overlap
     ethr =  1.14E-11,  avg # of iterations =  2.0

     negative rho (up, down):  1.973E+00 0.000E+00

     total cpu time spent up to now is     7153.7 secs

     total energy              =   -7425.23671161 Ry
     Harris-Foulkes estimate   =   -7425.23671164 Ry
     estimated scf accuracy    <       0.00000006 Ry

     iteration # 25     ecut=    50.00 Ry     beta=0.70
     Davidson diagonalization with overlap
     ethr =  8.10E-12,  avg # of iterations =  2.0

     negative rho (up, down):  1.973E+00 0.000E+00

     total cpu time spent up to now is     7374.1 secs

     total energy              =   -7425.23671161 Ry
     Harris-Foulkes estimate   =   -7425.23671162 Ry
     estimated scf accuracy    <       0.00000001 Ry

     iteration # 26     ecut=    50.00 Ry     beta=0.70
     Davidson diagonalization with overlap
     ethr =  1.55E-12,  avg # of iterations =  2.0

     negative rho (up, down):  1.973E+00 0.000E+00

     total cpu time spent up to now is     7608.4 secs

     End of self-consistent calculation

          k = 0.2500 0.2500 0.0833 (167653 PWs)   bands (ev):

   -20.1870  -8.3207  -6.8573  -6.3312  -6.3265  -5.8990  -5.5015  -5.3992
    -5.3951  -5.2015  -5.2000  -5.1066  -5.0828  -5.0045  -4.9884  -4.9106
    -4.8322  -4.8195  -4.7836  -4.7807  -4.6760  -4.6068  -4.6034  -4.6016
    -4.5987  -4.5789  -4.5397  -4.5375  -4.5273  -4.5202  -4.4903  -4.4774
    -4.4590  -4.4353  -4.4310  -4.4036  -4.3954  -4.3538  -4.3468  -4.3375
    -4.3336  -4.3260  -4.3182  -4.3136  -4.2737  -4.2599  -4.2550  -4.2512
    -4.2480  -4.2135  -4.1727  -4.1660  -4.1548  -4.1530  -4.1443  -4.1419
    -4.1384  -4.1359  -4.1270  -4.0817  -4.0673  -4.0227  -4.0179  -4.0104
    -3.9910  -3.9777  -3.9701  -3.9595  -3.9581  -3.9547  -3.9451  -3.9038
    -3.9029  -3.8914  -3.8901  -3.8016  -3.7857  -3.7822  -3.7790  -3.7480
    -3.7403  -3.7154  -3.6910  -3.6879  -3.6606  -3.6588  -3.6506  -3.6394
    -3.6307  -3.6247  -3.5747  -3.5688  -3.5492  -3.5434  -3.5320  -3.5240
    -3.5214  -3.5186  -3.5024  -3.4949  -3.4619  -3.4581  -3.4491  -3.4380
    -3.4079  -3.4019  -3.3915  -3.3581  -3.3532  -3.3231  -3.3192  -3.2982
    -3.2759  -3.2741  -3.2695  -3.2608  -3.2560  -3.2541  -3.2284  -3.2064
    -3.1756  -3.1698  -3.1606  -3.1543  -3.1492  -3.1462  -3.1300  -3.1255
    -3.1143  -3.1077  -3.1009  -3.0905  -3.0746  -3.0706  -3.0639  -3.0621
    -3.0331  -3.0258  -3.0120  -2.9949  -2.9878  -2.9853  -2.9834  -2.9417
    -2.9033  -2.8976  -2.8949  -2.8906  -2.8890  -2.8863  -2.8838  -2.8821
    -2.8802  -2.8747  -2.8717  -2.8638  -2.8491  -2.8459  -2.8418  -2.8374
    -2.8245  -2.8170  -2.7941  -2.7894  -2.7875  -2.7821  -2.7647  -2.7640
    -2.7599  -2.7572  -2.7506  -2.7437  -2.6955  -2.6939  -2.6880  -2.6856
    -2.6820  -2.6717  -2.6393  -2.6053  -2.5981  -2.5951  -2.5894  -2.5810
    -2.5790  -2.5781  -2.5632  -2.5602  -2.5428  -2.5284  -2.5230  -2.5183
    -2.5160  -2.5007  -2.4819  -2.4795  -2.4701  -2.4659  -2.4638  -2.4527
    -2.4197  -2.4063  -2.3812  -2.3498  -2.3461  -2.3314  -2.3263  -2.3248
    -2.3010  -2.2747  -2.2664  -2.2539  -2.2385  -2.2236  -2.2162  -2.2137
    -2.1988  -2.1954  -2.1900  -2.1751  -2.1441  -2.1362  -2.1181  -2.1138
    -2.1102  -2.1093  -2.1055  -2.0959  -2.0897  -2.0885  -2.0866  -2.0788
    -2.0758  -2.0736  -2.0707  -2.0616  -2.0493  -2.0467  -2.0401  -2.0391
    -2.0356  -2.0279  -2.0202  -2.0103  -2.0024  -2.0004  -1.9918  -1.9660
    -1.9488  -1.9266  -1.9198  -1.8892  -1.8734  -1.8708  -1.8597  -1.8527
    -1.8374  -1.8309  -1.8258  -1.8224  -1.8180  -1.8168  -1.8134  -1.7995
    -1.7829  -1.7801  -1.7718  -1.7401  -1.7307  -1.7073  -1.6916  -1.6511
    -1.6490  -1.6361  -1.6205  -1.6162  -1.6054  -1.5936  -1.5885  -1.5781
    -1.5730  -1.5682  -1.5660  -1.5639  -1.5630  -1.5599  -1.5516  -1.5458
    -1.5345  -1.5197  -1.5124  -1.5041  -1.4964  -1.4750  -1.4688  -1.4644
    -1.4634  -1.4586  -1.4514  -1.4435  -1.4270  -1.4209  -1.4106  -1.4062
    -1.3955  -1.3831  -1.3750  -1.3609  -1.3534  -1.3502  -1.3349  -1.3098
    -1.3066  -1.3014  -1.2993  -1.2942  -1.2849  -1.2703  -1.2689  -1.2630
    -1.2529  -1.2484  -1.2443  -1.2381  -1.2365  -1.2272  -1.2229  -1.2123
    -1.2075  -1.2034  -1.1993  -1.1938  -1.1870  -1.1836  -1.1673  -1.1436
    -1.1401  -1.1371  -1.1287  -1.1281  -1.1171  -1.0980  -1.0766  -1.0732
    -1.0722  -1.0711  -1.0681  -1.0644  -1.0586  -1.0480  -1.0221  -1.0164
    -1.0068  -1.0043  -0.9949  -0.9834  -0.9824  -0.9722  -0.9488  -0.9352
    -0.9163  -0.9069  -0.8832  -0.8815  -0.8777  -0.8753  -0.8711  -0.8693
    -0.8658  -0.8651  -0.8603  -0.8504  -0.8300  -0.8283  -0.8127  -0.8095
    -0.8037  -0.8028  -0.8006  -0.7853  -0.7266  -0.5230  -0.4936  -0.4430
    -0.4123  -0.3930  -0.2339  -0.1780  -0.1745  -0.1206   0.1391   0.1604
     0.4680   0.4911   0.5686   0.5762   0.6095   0.6242   0.7541   0.7887
     0.8762   0.8845   0.9843   1.5707   1.5842   1.5864   1.6187   1.6311
     1.6630   1.6999   1.7524   1.7738   1.9574   1.9712   2.2010   2.2720
     2.2900   2.2999   2.6641   2.6869   2.7439   2.7447   2.7562   2.7632
     2.9039   2.9057   2.9555   3.0464   3.0754   3.2841   3.2948   3.4163
     3.4364   3.4510   3.7080   3.7272   3.8318   3.8454   3.8482   3.9068
     3.9448   4.0291   4.0438   4.2645   4.2714   4.3585   4.3688   4.4760
     4.4889   4.5026   4.5232   4.6746   5.2760   5.3297   5.3720   5.4027
     5.4211   5.5829   5.6048   5.6394   5.6637   5.7022   5.7114   5.7221
     5.7487   5.7559   5.7757   5.8115   6.0471   6.0541   6.0769   6.0933
     6.0971   6.1044   6.1205   6.1326   6.1540   6.1739   6.1758   6.2170

          k = 0.2500 0.2500-0.2500 (167588 PWs)   bands (ev):

   -20.1870  -8.3207  -6.8573  -6.3312  -6.3265  -5.8990  -5.5015  -5.3992
    -5.3951  -5.2015  -5.2000  -5.1066  -5.0828  -5.0044  -4.9884  -4.9106
    -4.8322  -4.8195  -4.7836  -4.7807  -4.6760  -4.6068  -4.6034  -4.6016
    -4.5987  -4.5789  -4.5397  -4.5375  -4.5273  -4.5202  -4.4903  -4.4774
    -4.4590  -4.4353  -4.4310  -4.4036  -4.3954  -4.3538  -4.3468  -4.3375
    -4.3336  -4.3260  -4.3182  -4.3136  -4.2737  -4.2599  -4.2550  -4.2512
    -4.2480  -4.2135  -4.1727  -4.1660  -4.1548  -4.1530  -4.1443  -4.1419
    -4.1384  -4.1359  -4.1270  -4.0817  -4.0673  -4.0227  -4.0179  -4.0104
    -3.9910  -3.9777  -3.9701  -3.9595  -3.9581  -3.9547  -3.9451  -3.9038
    -3.9029  -3.8914  -3.8901  -3.8016  -3.7857  -3.7822  -3.7790  -3.7480
    -3.7403  -3.7154  -3.6910  -3.6879  -3.6606  -3.6588  -3.6506  -3.6394
    -3.6307  -3.6247  -3.5747  -3.5688  -3.5492  -3.5434  -3.5321  -3.5240
    -3.5214  -3.5186  -3.5024  -3.4949  -3.4618  -3.4581  -3.4491  -3.4380
    -3.4079  -3.4019  -3.3915  -3.3581  -3.3532  -3.3231  -3.3192  -3.2982
    -3.2759  -3.2741  -3.2695  -3.2608  -3.2560  -3.2541  -3.2284  -3.2064
    -3.1756  -3.1698  -3.1606  -3.1543  -3.1492  -3.1462  -3.1300  -3.1255
    -3.1143  -3.1077  -3.1009  -3.0905  -3.0746  -3.0706  -3.0639  -3.0621
    -3.0331  -3.0258  -3.0120  -2.9949  -2.9878  -2.9853  -2.9834  -2.9417
    -2.9033  -2.8976  -2.8949  -2.8906  -2.8890  -2.8863  -2.8838  -2.8821
    -2.8802  -2.8747  -2.8717  -2.8638  -2.8491  -2.8459  -2.8418  -2.8374
    -2.8245  -2.8170  -2.7941  -2.7894  -2.7875  -2.7821  -2.7647  -2.7640
    -2.7599  -2.7572  -2.7506  -2.7437  -2.6955  -2.6939  -2.6880  -2.6856
    -2.6820  -2.6717  -2.6393  -2.6053  -2.5981  -2.5951  -2.5894  -2.5810
    -2.5790  -2.5781  -2.5632  -2.5602  -2.5428  -2.5284  -2.5230  -2.5183
    -2.5160  -2.5007  -2.4819  -2.4795  -2.4701  -2.4659  -2.4638  -2.4527
    -2.4198  -2.4062  -2.3812  -2.3498  -2.3461  -2.3314  -2.3264  -2.3248
    -2.3010  -2.2747  -2.2664  -2.2539  -2.2385  -2.2236  -2.2162  -2.2137
    -2.1988  -2.1954  -2.1900  -2.1751  -2.1441  -2.1362  -2.1181  -2.1138
    -2.1102  -2.1093  -2.1055  -2.0959  -2.0897  -2.0885  -2.0866  -2.0788
    -2.0758  -2.0736  -2.0707  -2.0616  -2.0493  -2.0467  -2.0401  -2.0391
    -2.0356  -2.0279  -2.0202  -2.0103  -2.0024  -2.0003  -1.9918  -1.9660
    -1.9488  -1.9266  -1.9198  -1.8892  -1.8734  -1.8708  -1.8596  -1.8527
    -1.8374  -1.8309  -1.8258  -1.8224  -1.8180  -1.8167  -1.8134  -1.7995
    -1.7829  -1.7801  -1.7718  -1.7401  -1.7307  -1.7073  -1.6916  -1.6511
    -1.6490  -1.6362  -1.6205  -1.6162  -1.6054  -1.5937  -1.5885  -1.5781
    -1.5730  -1.5682  -1.5660  -1.5639  -1.5630  -1.5599  -1.5516  -1.5458
    -1.5345  -1.5197  -1.5124  -1.5041  -1.4964  -1.4750  -1.4688  -1.4644
    -1.4634  -1.4586  -1.4514  -1.4435  -1.4270  -1.4209  -1.4106  -1.4062
    -1.3955  -1.3831  -1.3750  -1.3609  -1.3534  -1.3501  -1.3349  -1.3098
    -1.3066  -1.3014  -1.2993  -1.2942  -1.2848  -1.2703  -1.2688  -1.2630
    -1.2529  -1.2484  -1.2443  -1.2381  -1.2365  -1.2272  -1.2229  -1.2123
    -1.2074  -1.2034  -1.1993  -1.1938  -1.1870  -1.1836  -1.1673  -1.1436
    -1.1401  -1.1371  -1.1287  -1.1281  -1.1171  -1.0980  -1.0766  -1.0732
    -1.0722  -1.0711  -1.0681  -1.0643  -1.0586  -1.0480  -1.0221  -1.0164
    -1.0068  -1.0043  -0.9949  -0.9834  -0.9824  -0.9722  -0.9488  -0.9352
    -0.9163  -0.9069  -0.8832  -0.8815  -0.8777  -0.8753  -0.8712  -0.8693
    -0.8658  -0.8651  -0.8603  -0.8504  -0.8300  -0.8283  -0.8127  -0.8095
    -0.8037  -0.8028  -0.8006  -0.7853  -0.7266  -0.5230  -0.4936  -0.4430
    -0.4123  -0.3930  -0.2339  -0.1780  -0.1745  -0.1206   0.1391   0.1604
     0.4680   0.4911   0.5686   0.5762   0.6095   0.6242   0.7541   0.7887
     0.8762   0.8845   0.9843   1.5707   1.5842   1.5864   1.6187   1.6311
     1.6630   1.6999   1.7524   1.7738   1.9574   1.9712   2.2010   2.2720
     2.2900   2.2999   2.6641   2.6869   2.7439   2.7447   2.7562   2.7632
     2.9039   2.9057   2.9555   3.0465   3.0754   3.2841   3.2948   3.4163
     3.4364   3.4510   3.7080   3.7272   3.8318   3.8454   3.8482   3.9069
     3.9449   4.0291   4.0438   4.2645   4.2714   4.3585   4.3688   4.4760
     4.4889   4.5026   4.5232   4.6747   5.2745   5.3296   5.3478   5.4022
     5.4211   5.5828   5.6049   5.6383   5.6922   5.7047   5.7140   5.7304
     5.7534   5.7683   5.7802   5.8130   6.0470   6.0526   6.0773   6.0934
     6.0971   6.1044   6.1205   6.1267   6.1418   6.1718   6.2143   6.2719

          k =-0.2500-0.2500 0.0833 (167653 PWs)   bands (ev):

   -20.1870  -8.3207  -6.8573  -6.3312  -6.3265  -5.8990  -5.5015  -5.3992
    -5.3951  -5.2015  -5.2000  -5.1066  -5.0828  -5.0045  -4.9884  -4.9106
    -4.8322  -4.8195  -4.7836  -4.7807  -4.6760  -4.6068  -4.6034  -4.6016
    -4.5987  -4.5789  -4.5397  -4.5375  -4.5273  -4.5202  -4.4903  -4.4774
    -4.4590  -4.4353  -4.4310  -4.4036  -4.3954  -4.3538  -4.3468  -4.3375
    -4.3336  -4.3260  -4.3182  -4.3136  -4.2737  -4.2599  -4.2550  -4.2512
    -4.2480  -4.2135  -4.1727  -4.1660  -4.1548  -4.1530  -4.1443  -4.1419
    -4.1384  -4.1359  -4.1270  -4.0817  -4.0673  -4.0227  -4.0179  -4.0104
    -3.9910  -3.9777  -3.9701  -3.9595  -3.9581  -3.9547  -3.9451  -3.9038
    -3.9029  -3.8914  -3.8901  -3.8016  -3.7857  -3.7822  -3.7790  -3.7480
    -3.7403  -3.7154  -3.6910  -3.6879  -3.6606  -3.6588  -3.6506  -3.6394
    -3.6307  -3.6247  -3.5747  -3.5688  -3.5492  -3.5434  -3.5320  -3.5240
    -3.5214  -3.5186  -3.5024  -3.4949  -3.4619  -3.4581  -3.4491  -3.4380
    -3.4079  -3.4019  -3.3915  -3.3581  -3.3532  -3.3231  -3.3192  -3.2982
    -3.2759  -3.2741  -3.2695  -3.2608  -3.2560  -3.2541  -3.2284  -3.2064
    -3.1756  -3.1698  -3.1606  -3.1543  -3.1492  -3.1462  -3.1300  -3.1255
    -3.1143  -3.1077  -3.1009  -3.0905  -3.0746  -3.0706  -3.0639  -3.0621
    -3.0331  -3.0258  -3.0120  -2.9949  -2.9878  -2.9853  -2.9834  -2.9417
    -2.9033  -2.8976  -2.8949  -2.8906  -2.8890  -2.8863  -2.8838  -2.8821
    -2.8802  -2.8747  -2.8717  -2.8638  -2.8491  -2.8459  -2.8418  -2.8374
    -2.8245  -2.8170  -2.7941  -2.7894  -2.7875  -2.7821  -2.7647  -2.7640
    -2.7599  -2.7572  -2.7506  -2.7437  -2.6955  -2.6939  -2.6880  -2.6856
    -2.6820  -2.6717  -2.6393  -2.6053  -2.5981  -2.5951  -2.5894  -2.5810
    -2.5790  -2.5781  -2.5632  -2.5602  -2.5428  -2.5284  -2.5230  -2.5183
    -2.5160  -2.5007  -2.4819  -2.4795  -2.4701  -2.4659  -2.4638  -2.4527
    -2.4197  -2.4063  -2.3812  -2.3498  -2.3461  -2.3314  -2.3263  -2.3248
    -2.3010  -2.2747  -2.2664  -2.2539  -2.2385  -2.2236  -2.2162  -2.2137
    -2.1988  -2.1954  -2.1900  -2.1751  -2.1441  -2.1362  -2.1181  -2.1138
    -2.1102  -2.1093  -2.1055  -2.0959  -2.0897  -2.0885  -2.0866  -2.0788
    -2.0758  -2.0736  -2.0707  -2.0616  -2.0493  -2.0467  -2.0401  -2.0391
    -2.0356  -2.0279  -2.0202  -2.0103  -2.0024  -2.0004  -1.9918  -1.9660
    -1.9488  -1.9266  -1.9198  -1.8892  -1.8734  -1.8708  -1.8597  -1.8527
    -1.8374  -1.8309  -1.8258  -1.8224  -1.8180  -1.8168  -1.8134  -1.7995
    -1.7829  -1.7801  -1.7718  -1.7401  -1.7307  -1.7073  -1.6916  -1.6511
    -1.6490  -1.6361  -1.6205  -1.6162  -1.6054  -1.5936  -1.5885  -1.5781
    -1.5730  -1.5682  -1.5660  -1.5639  -1.5630  -1.5599  -1.5516  -1.5458
    -1.5345  -1.5197  -1.5124  -1.5041  -1.4964  -1.4750  -1.4688  -1.4644
    -1.4634  -1.4586  -1.4514  -1.4435  -1.4270  -1.4209  -1.4106  -1.4062
    -1.3955  -1.3831  -1.3750  -1.3609  -1.3534  -1.3502  -1.3349  -1.3098
    -1.3066  -1.3014  -1.2993  -1.2942  -1.2849  -1.2703  -1.2689  -1.2630
    -1.2529  -1.2484  -1.2443  -1.2381  -1.2365  -1.2272  -1.2229  -1.2123
    -1.2075  -1.2034  -1.1993  -1.1938  -1.1870  -1.1836  -1.1673  -1.1436
    -1.1401  -1.1371  -1.1287  -1.1281  -1.1171  -1.0980  -1.0766  -1.0732
    -1.0722  -1.0711  -1.0681  -1.0644  -1.0586  -1.0480  -1.0221  -1.0164
    -1.0068  -1.0043  -0.9949  -0.9834  -0.9824  -0.9722  -0.9488  -0.9352
    -0.9163  -0.9069  -0.8832  -0.8815  -0.8777  -0.8753  -0.8711  -0.8693
    -0.8658  -0.8651  -0.8603  -0.8504  -0.8300  -0.8283  -0.8127  -0.8095
    -0.8037  -0.8028  -0.8006  -0.7853  -0.7266  -0.5230  -0.4936  -0.4430
    -0.4123  -0.3930  -0.2339  -0.1780  -0.1745  -0.1206   0.1391   0.1604
     0.4680   0.4911   0.5686   0.5762   0.6095   0.6242   0.7541   0.7887
     0.8762   0.8845   0.9843   1.5707   1.5842   1.5864   1.6187   1.6311
     1.6630   1.6999   1.7524   1.7738   1.9574   1.9712   2.2010   2.2720
     2.2900   2.2999   2.6641   2.6869   2.7439   2.7447   2.7562   2.7632
     2.9039   2.9057   2.9555   3.0464   3.0754   3.2841   3.2948   3.4163
     3.4364   3.4510   3.7080   3.7272   3.8318   3.8454   3.8482   3.9068
     3.9448   4.0291   4.0438   4.2645   4.2714   4.3585   4.3688   4.4760
     4.4889   4.5026   4.5232   4.6746   5.2760   5.3297   5.3718   5.4028
     5.4211   5.5831   5.6050   5.6387   5.6639   5.7021   5.7113   5.7225
     5.7485   5.7558   5.7758   5.8115   6.0470   6.0540   6.0769   6.0932
     6.0971   6.1044   6.1205   6.1334   6.1534   6.1730   6.1766   6.2170

          k =-0.2500 0.2500-0.0833 (167653 PWs)   bands (ev):

   -20.1870  -8.3207  -6.8574  -6.3312  -6.3262  -5.8991  -5.5014  -5.3991
    -5.3950  -5.2026  -5.1992  -5.1097  -5.0813  -5.0067  -4.9853  -4.9094
    -4.8252  -4.8236  -4.7946  -4.7797  -4.6682  -4.6156  -4.6034  -4.6006
    -4.5959  -4.5685  -4.5393  -4.5350  -4.5264  -4.5224  -4.4887  -4.4764
    -4.4672  -4.4353  -4.4330  -4.4022  -4.3983  -4.3482  -4.3446  -4.3394
    -4.3328  -4.3279  -4.3179  -4.3135  -4.2791  -4.2617  -4.2567  -4.2503
    -4.2451  -4.2210  -4.1779  -4.1552  -4.1532  -4.1525  -4.1444  -4.1405
    -4.1381  -4.1363  -4.1305  -4.0723  -4.0659  -4.0289  -4.0198  -4.0080
    -3.9862  -3.9815  -3.9632  -3.9599  -3.9587  -3.9568  -3.9532  -3.9070
    -3.9027  -3.8933  -3.8899  -3.7955  -3.7844  -3.7781  -3.7738  -3.7455
    -3.7411  -3.7153  -3.6965  -3.6863  -3.6615  -3.6576  -3.6422  -3.6388
    -3.6347  -3.6237  -3.5922  -3.5685  -3.5668  -3.5352  -3.5322  -3.5255
    -3.5211  -3.5188  -3.4986  -3.4931  -3.4657  -3.4566  -3.4470  -3.4314
    -3.4118  -3.3995  -3.3895  -3.3671  -3.3571  -3.3261  -3.3181  -3.2831
    -3.2763  -3.2736  -3.2628  -3.2594  -3.2546  -3.2530  -3.2316  -3.2049
    -3.1795  -3.1721  -3.1592  -3.1554  -3.1488  -3.1462  -3.1316  -3.1247
    -3.1138  -3.1094  -3.0995  -3.0931  -3.0756  -3.0716  -3.0661  -3.0608
    -3.0372  -3.0293  -3.0144  -2.9900  -2.9881  -2.9843  -2.9829  -2.9492
    -2.9024  -2.9000  -2.8952  -2.8930  -2.8886  -2.8881  -2.8857  -2.8814
    -2.8802  -2.8739  -2.8688  -2.8636  -2.8537  -2.8472  -2.8425  -2.8357
    -2.8308  -2.7966  -2.7928  -2.7898  -2.7867  -2.7803  -2.7727  -2.7638
    -2.7627  -2.7568  -2.7508  -2.7366  -2.6969  -2.6934  -2.6881  -2.6871
    -2.6837  -2.6577  -2.6425  -2.6024  -2.5987  -2.5920  -2.5891  -2.5805
    -2.5780  -2.5724  -2.5657  -2.5583  -2.5403  -2.5263  -2.5248  -2.5164
    -2.5153  -2.4950  -2.4809  -2.4763  -2.4688  -2.4651  -2.4635  -2.4510
    -2.4208  -2.4012  -2.3874  -2.3531  -2.3448  -2.3328  -2.3256  -2.3234
    -2.2924  -2.2765  -2.2708  -2.2539  -2.2474  -2.2245  -2.2224  -2.2153
    -2.2014  -2.1949  -2.1906  -2.1704  -2.1551  -2.1350  -2.1186  -2.1150
    -2.1122  -2.1103  -2.1046  -2.0974  -2.0905  -2.0869  -2.0834  -2.0778
    -2.0761  -2.0737  -2.0681  -2.0605  -2.0485  -2.0464  -2.0439  -2.0392
    -2.0367  -2.0265  -2.0201  -2.0100  -2.0026  -2.0020  -1.9911  -1.9819
    -1.9578  -1.9271  -1.9208  -1.8891  -1.8731  -1.8715  -1.8606  -1.8518
    -1.8374  -1.8312  -1.8287  -1.8225  -1.8200  -1.8171  -1.8140  -1.7900
    -1.7820  -1.7798  -1.7559  -1.7417  -1.7326  -1.7087  -1.6873  -1.6515
    -1.6483  -1.6363  -1.6204  -1.6132  -1.6050  -1.5971  -1.5865  -1.5776
    -1.5738  -1.5696  -1.5668  -1.5649  -1.5632  -1.5617  -1.5550  -1.5454
    -1.5360  -1.5229  -1.5158  -1.5026  -1.4921  -1.4753  -1.4684  -1.4661
    -1.4631  -1.4577  -1.4534  -1.4441  -1.4271  -1.4211  -1.4127  -1.4047
    -1.3939  -1.3849  -1.3666  -1.3598  -1.3537  -1.3500  -1.3360  -1.3146
    -1.3058  -1.3044  -1.2986  -1.2959  -1.2786  -1.2737  -1.2685  -1.2626
    -1.2551  -1.2472  -1.2460  -1.2368  -1.2359  -1.2271  -1.2222  -1.2135
    -1.2069  -1.2058  -1.2022  -1.1933  -1.1906  -1.1819  -1.1562  -1.1456
    -1.1391  -1.1355  -1.1329  -1.1284  -1.1151  -1.0974  -1.0791  -1.0736
    -1.0721  -1.0712  -1.0687  -1.0643  -1.0524  -1.0480  -1.0252  -1.0134
    -1.0052  -1.0031  -0.9876  -0.9841  -0.9769  -0.9725  -0.9467  -0.9354
    -0.9162  -0.9065  -0.8844  -0.8825  -0.8775  -0.8752  -0.8714  -0.8674
    -0.8655  -0.8651  -0.8601  -0.8538  -0.8308  -0.8280  -0.8113  -0.8092
    -0.8040  -0.8029  -0.8007  -0.7843  -0.7238  -0.5242  -0.4935  -0.4390
    -0.4102  -0.3974  -0.2414  -0.1799  -0.1760  -0.1203   0.1411   0.1587
     0.4737   0.4889   0.5670   0.5766   0.6108   0.6184   0.7592   0.7767
     0.8764   0.8855   0.9828   1.5658   1.5826   1.5883   1.6222   1.6315
     1.6778   1.6951   1.7534   1.7714   1.9555   1.9717   2.2053   2.2763
     2.2898   2.2953   2.6747   2.6824   2.7421   2.7497   2.7573   2.7615
     2.9020   2.9078   2.9629   3.0508   3.0588   3.2818   3.2898   3.4142
     3.4357   3.4530   3.7138   3.7185   3.8305   3.8452   3.8486   3.9275
     3.9317   4.0246   4.0355   4.2563   4.2756   4.3602   4.3658   4.4694
     4.4866   4.5087   4.5413   4.6779   5.2941   5.3133   5.3737   5.4066
     5.4224   5.5832   5.5948   5.6419   5.6682   5.7062   5.7148   5.7326
     5.7369   5.7491   5.7654   5.8056   6.0413   6.0729   6.0841   6.0934
     6.0945   6.1059   6.1204   6.1279   6.1603   6.1664   6.1867   6.1964

          k = 0.2500-0.2500-0.0833 (167653 PWs)   bands (ev):

   -20.1870  -8.3207  -6.8574  -6.3312  -6.3262  -5.8991  -5.5014  -5.3991
    -5.3950  -5.2026  -5.1992  -5.1097  -5.0813  -5.0067  -4.9853  -4.9094
    -4.8252  -4.8236  -4.7946  -4.7797  -4.6682  -4.6156  -4.6034  -4.6006
    -4.5959  -4.5685  -4.5393  -4.5350  -4.5264  -4.5224  -4.4887  -4.4764
    -4.4672  -4.4353  -4.4330  -4.4022  -4.3983  -4.3482  -4.3446  -4.3394
    -4.3328  -4.3279  -4.3179  -4.3135  -4.2791  -4.2617  -4.2567  -4.2503
    -4.2451  -4.2210  -4.1779  -4.1552  -4.1532  -4.1525  -4.1444  -4.1405
    -4.1381  -4.1363  -4.1305  -4.0723  -4.0659  -4.0289  -4.0198  -4.0080
    -3.9862  -3.9815  -3.9632  -3.9599  -3.9587  -3.9568  -3.9532  -3.9070
    -3.9027  -3.8933  -3.8899  -3.7955  -3.7844  -3.7781  -3.7738  -3.7455
    -3.7411  -3.7153  -3.6965  -3.6863  -3.6615  -3.6576  -3.6422  -3.6388
    -3.6347  -3.6237  -3.5922  -3.5685  -3.5668  -3.5352  -3.5322  -3.5255
    -3.5211  -3.5188  -3.4986  -3.4931  -3.4657  -3.4566  -3.4470  -3.4314
    -3.4118  -3.3995  -3.3895  -3.3671  -3.3571  -3.3261  -3.3181  -3.2831
    -3.2763  -3.2736  -3.2628  -3.2594  -3.2546  -3.2530  -3.2316  -3.2049
    -3.1795  -3.1721  -3.1592  -3.1554  -3.1488  -3.1462  -3.1316  -3.1247
    -3.1138  -3.1094  -3.0995  -3.0931  -3.0756  -3.0716  -3.0661  -3.0608
    -3.0372  -3.0293  -3.0144  -2.9900  -2.9881  -2.9843  -2.9829  -2.9492
    -2.9024  -2.9000  -2.8952  -2.8930  -2.8886  -2.8881  -2.8857  -2.8814
    -2.8802  -2.8739  -2.8688  -2.8636  -2.8537  -2.8472  -2.8425  -2.8357
    -2.8308  -2.7966  -2.7928  -2.7898  -2.7867  -2.7803  -2.7727  -2.7638
    -2.7627  -2.7568  -2.7508  -2.7366  -2.6969  -2.6934  -2.6881  -2.6871
    -2.6837  -2.6577  -2.6425  -2.6024  -2.5987  -2.5920  -2.5891  -2.5805
    -2.5780  -2.5724  -2.5657  -2.5583  -2.5403  -2.5263  -2.5248  -2.5164
    -2.5153  -2.4950  -2.4809  -2.4763  -2.4688  -2.4651  -2.4635  -2.4510
    -2.4208  -2.4012  -2.3874  -2.3531  -2.3448  -2.3328  -2.3256  -2.3234
    -2.2924  -2.2765  -2.2708  -2.2539  -2.2474  -2.2245  -2.2224  -2.2153
    -2.2014  -2.1949  -2.1906  -2.1704  -2.1551  -2.1350  -2.1186  -2.1150
    -2.1122  -2.1103  -2.1046  -2.0974  -2.0905  -2.0869  -2.0834  -2.0778
    -2.0761  -2.0737  -2.0681  -2.0605  -2.0485  -2.0464  -2.0439  -2.0392
    -2.0367  -2.0265  -2.0201  -2.0100  -2.0026  -2.0020  -1.9911  -1.9819
    -1.9578  -1.9271  -1.9208  -1.8891  -1.8731  -1.8715  -1.8606  -1.8518
    -1.8374  -1.8312  -1.8287  -1.8225  -1.8200  -1.8171  -1.8140  -1.7900
    -1.7820  -1.7798  -1.7559  -1.7417  -1.7326  -1.7087  -1.6873  -1.6515
    -1.6483  -1.6363  -1.6204  -1.6132  -1.6050  -1.5971  -1.5865  -1.5776
    -1.5738  -1.5696  -1.5668  -1.5649  -1.5632  -1.5617  -1.5550  -1.5454
    -1.5360  -1.5229  -1.5158  -1.5026  -1.4921  -1.4753  -1.4684  -1.4661
    -1.4631  -1.4577  -1.4534  -1.4441  -1.4271  -1.4211  -1.4127  -1.4047
    -1.3939  -1.3849  -1.3666  -1.3598  -1.3537  -1.3500  -1.3360  -1.3146
    -1.3058  -1.3044  -1.2986  -1.2959  -1.2786  -1.2737  -1.2685  -1.2626
    -1.2551  -1.2472  -1.2460  -1.2368  -1.2359  -1.2271  -1.2222  -1.2135
    -1.2069  -1.2058  -1.2022  -1.1933  -1.1906  -1.1819  -1.1562  -1.1456
    -1.1391  -1.1355  -1.1329  -1.1284  -1.1151  -1.0974  -1.0791  -1.0736
    -1.0721  -1.0712  -1.0687  -1.0643  -1.0524  -1.0480  -1.0252  -1.0134
    -1.0052  -1.0031  -0.9876  -0.9841  -0.9769  -0.9725  -0.9467  -0.9354
    -0.9162  -0.9065  -0.8844  -0.8825  -0.8775  -0.8752  -0.8714  -0.8674
    -0.8655  -0.8651  -0.8601  -0.8538  -0.8308  -0.8280  -0.8113  -0.8092
    -0.8040  -0.8029  -0.8007  -0.7843  -0.7238  -0.5242  -0.4935  -0.4390
    -0.4102  -0.3974  -0.2414  -0.1799  -0.1760  -0.1203   0.1411   0.1587
     0.4737   0.4889   0.5670   0.5766   0.6108   0.6184   0.7592   0.7767
     0.8764   0.8855   0.9828   1.5658   1.5826   1.5883   1.6222   1.6315
     1.6778   1.6951   1.7534   1.7714   1.9555   1.9717   2.2053   2.2763
     2.2898   2.2953   2.6747   2.6824   2.7421   2.7497   2.7573   2.7615
     2.9020   2.9078   2.9629   3.0508   3.0588   3.2818   3.2898   3.4142
     3.4357   3.4530   3.7138   3.7185   3.8305   3.8452   3.8486   3.9275
     3.9317   4.0246   4.0355   4.2563   4.2756   4.3602   4.3658   4.4694
     4.4866   4.5087   4.5413   4.6779   5.2940   5.3133   5.3738   5.4067
     5.4223   5.5831   5.5949   5.6426   5.6663   5.7065   5.7152   5.7327
     5.7368   5.7492   5.7656   5.8056   6.0414   6.0729   6.0841   6.0933
     6.0946   6.1060   6.1204   6.1291   6.1609   6.1674   6.1865   6.1939

          k =-0.2500 0.2500 0.2500 (167588 PWs)   bands (ev):

   -20.1870  -8.3207  -6.8574  -6.3312  -6.3262  -5.8991  -5.5014  -5.3991
    -5.3950  -5.2026  -5.1992  -5.1097  -5.0813  -5.0067  -4.9853  -4.9094
    -4.8252  -4.8236  -4.7946  -4.7797  -4.6682  -4.6156  -4.6034  -4.6006
    -4.5959  -4.5685  -4.5393  -4.5350  -4.5264  -4.5224  -4.4887  -4.4764
    -4.4672  -4.4353  -4.4329  -4.4022  -4.3983  -4.3482  -4.3446  -4.3394
    -4.3328  -4.3279  -4.3179  -4.3135  -4.2791  -4.2617  -4.2567  -4.2503
    -4.2451  -4.2210  -4.1779  -4.1552  -4.1532  -4.1525  -4.1444  -4.1405
    -4.1381  -4.1363  -4.1305  -4.0723  -4.0659  -4.0289  -4.0198  -4.0080
    -3.9862  -3.9814  -3.9632  -3.9599  -3.9587  -3.9568  -3.9532  -3.9070
    -3.9027  -3.8933  -3.8898  -3.7955  -3.7844  -3.7781  -3.7738  -3.7455
    -3.7411  -3.7153  -3.6965  -3.6863  -3.6615  -3.6576  -3.6422  -3.6388
    -3.6347  -3.6237  -3.5922  -3.5685  -3.5668  -3.5352  -3.5322  -3.5255
    -3.5210  -3.5188  -3.4986  -3.4931  -3.4657  -3.4566  -3.4470  -3.4314
    -3.4118  -3.3995  -3.3895  -3.3671  -3.3571  -3.3261  -3.3181  -3.2831
    -3.2763  -3.2736  -3.2628  -3.2594  -3.2546  -3.2530  -3.2316  -3.2050
    -3.1795  -3.1721  -3.1592  -3.1554  -3.1488  -3.1462  -3.1316  -3.1247
    -3.1138  -3.1094  -3.0995  -3.0931  -3.0756  -3.0716  -3.0661  -3.0608
    -3.0372  -3.0293  -3.0144  -2.9900  -2.9881  -2.9842  -2.9829  -2.9492
    -2.9024  -2.9000  -2.8952  -2.8930  -2.8886  -2.8881  -2.8857  -2.8814
    -2.8802  -2.8739  -2.8688  -2.8636  -2.8537  -2.8472  -2.8425  -2.8357
    -2.8308  -2.7966  -2.7928  -2.7898  -2.7867  -2.7803  -2.7727  -2.7638
    -2.7627  -2.7568  -2.7508  -2.7366  -2.6969  -2.6934  -2.6881  -2.6871
    -2.6837  -2.6577  -2.6425  -2.6024  -2.5987  -2.5920  -2.5891  -2.5805
    -2.5780  -2.5723  -2.5657  -2.5583  -2.5403  -2.5263  -2.5248  -2.5164
    -2.5153  -2.4950  -2.4809  -2.4763  -2.4688  -2.4651  -2.4635  -2.4510
    -2.4208  -2.4012  -2.3874  -2.3531  -2.3448  -2.3328  -2.3256  -2.3234
    -2.2924  -2.2765  -2.2708  -2.2539  -2.2474  -2.2245  -2.2224  -2.2153
    -2.2014  -2.1949  -2.1906  -2.1704  -2.1551  -2.1350  -2.1186  -2.1150
    -2.1122  -2.1103  -2.1046  -2.0974  -2.0905  -2.0869  -2.0834  -2.0778
    -2.0761  -2.0737  -2.0681  -2.0605  -2.0485  -2.0464  -2.0439  -2.0392
    -2.0367  -2.0265  -2.0201  -2.0100  -2.0026  -2.0020  -1.9911  -1.9819
    -1.9579  -1.9271  -1.9208  -1.8891  -1.8731  -1.8715  -1.8606  -1.8517
    -1.8374  -1.8312  -1.8287  -1.8225  -1.8200  -1.8171  -1.8140  -1.7900
    -1.7820  -1.7798  -1.7559  -1.7417  -1.7326  -1.7087  -1.6873  -1.6515
    -1.6483  -1.6363  -1.6204  -1.6132  -1.6050  -1.5971  -1.5865  -1.5776
    -1.5738  -1.5696  -1.5668  -1.5649  -1.5632  -1.5617  -1.5550  -1.5454
    -1.5360  -1.5229  -1.5158  -1.5026  -1.4921  -1.4753  -1.4684  -1.4661
    -1.4631  -1.4577  -1.4534  -1.4441  -1.4271  -1.4211  -1.4127  -1.4047
    -1.3939  -1.3849  -1.3666  -1.3598  -1.3537  -1.3500  -1.3360  -1.3146
    -1.3058  -1.3044  -1.2986  -1.2959  -1.2786  -1.2737  -1.2685  -1.2626
    -1.2551  -1.2472  -1.2460  -1.2368  -1.2359  -1.2271  -1.2222  -1.2135
    -1.2069  -1.2058  -1.2022  -1.1933  -1.1906  -1.1819  -1.1562  -1.1456
    -1.1391  -1.1355  -1.1329  -1.1284  -1.1151  -1.0974  -1.0791  -1.0736
    -1.0721  -1.0712  -1.0687  -1.0643  -1.0524  -1.0480  -1.0252  -1.0134
    -1.0052  -1.0031  -0.9876  -0.9841  -0.9768  -0.9725  -0.9467  -0.9354
    -0.9162  -0.9065  -0.8844  -0.8825  -0.8775  -0.8752  -0.8714  -0.8674
    -0.8655  -0.8651  -0.8601  -0.8538  -0.8308  -0.8280  -0.8113  -0.8092
    -0.8040  -0.8029  -0.8007  -0.7843  -0.7238  -0.5242  -0.4935  -0.4390
    -0.4102  -0.3974  -0.2414  -0.1799  -0.1760  -0.1203   0.1411   0.1587
     0.4737   0.4889   0.5670   0.5766   0.6108   0.6184   0.7592   0.7767
     0.8764   0.8856   0.9828   1.5658   1.5826   1.5883   1.6222   1.6315
     1.6778   1.6951   1.7534   1.7714   1.9555   1.9717   2.2053   2.2763
     2.2898   2.2953   2.6747   2.6824   2.7421   2.7497   2.7573   2.7615
     2.9020   2.9078   2.9629   3.0508   3.0588   3.2818   3.2898   3.4142
     3.4357   3.4530   3.7138   3.7185   3.8305   3.8452   3.8486   3.9276
     3.9317   4.0246   4.0355   4.2563   4.2756   4.3602   4.3658   4.4694
     4.4866   4.5087   4.5413   4.6780   5.2918   5.3134   5.3498   5.4066
     5.4224   5.5830   5.5948   5.6433   5.7003   5.7095   5.7160   5.7220
     5.7476   5.7606   5.7795   5.8062   6.0409   6.0733   6.0845   6.0934
     6.0947   6.1059   6.1203   6.1271   6.1383   6.1829   6.1900   6.2838

     the Fermi energy is     0.8367 ev

!    total energy              =   -7425.23671158 Ry
     Harris-Foulkes estimate   =   -7425.23671161 Ry
     estimated scf accuracy    <          9.9E-09 Ry

     The total energy is the sum of the following terms:

     one-electron contribution =  -49004.36401404 Ry
     hartree contribution      =   25051.78097423 Ry
     xc contribution           =   -3604.33427792 Ry
     ewald contribution        =   20131.68295692 Ry
     smearing contrib. (-TS)   =      -0.00235077 Ry

     convergence has been achieved in  26 iterations

     Writing output data file 4615775.save

     init_run     :    121.33s CPU    127.16s WALL (       1 calls)
     electrons    :   7161.80s CPU   7479.23s WALL (       1 calls)

     Called by init_run:
     wfcinit      :     85.35s CPU     90.49s WALL (       1 calls)
     potinit      :      7.99s CPU      8.36s WALL (       1 calls)

     Called by electrons:
     c_bands      :   5421.45s CPU   5672.58s WALL (      27 calls)
     sum_band     :   1102.60s CPU   1155.40s WALL (      27 calls)
     v_of_rho     :    143.31s CPU    152.62s WALL (      27 calls)
     newd         :    510.01s CPU    513.78s WALL (      27 calls)
     mix_rho      :      4.10s CPU      4.41s WALL (      27 calls)
     vdW_energy   :      7.68s CPU      8.31s WALL (      27 calls)
     vdW_ffts     :     80.59s CPU     85.10s WALL (      54 calls)
     vdW_v        :     16.75s CPU     17.54s WALL (      27 calls)

     Called by c_bands:
     init_us_2    :      7.92s CPU      8.10s WALL (     330 calls)
     cegterg      :   5348.54s CPU   5598.96s WALL (     162 calls)

     Called by *egterg:
     h_psi        :   2406.97s CPU   2614.13s WALL (     787 calls)
     s_psi        :    333.18s CPU    335.30s WALL (     787 calls)
     g_psi        :      4.17s CPU      4.24s WALL (     619 calls)
     cdiaghg      :   1410.02s CPU   1413.71s WALL (     775 calls)

     Called by h_psi:
     add_vuspsi   :    335.49s CPU    337.84s WALL (     787 calls)

     General routines
     calbec       :    555.83s CPU    557.49s WALL (     949 calls)
     fft          :    381.18s CPU    390.42s WALL (    1782 calls)
     ffts         :      2.43s CPU      2.60s WALL (      54 calls)
     fftw         :   2018.77s CPU   2259.22s WALL (  429722 calls)
     interpolate  :      6.10s CPU      6.69s WALL (      54 calls)
     davcio       :      0.00s CPU      0.15s WALL (       6 calls)

     Parallel routines
     fft_scatter  :   1864.64s CPU   2084.31s WALL (  431558 calls)

     PWSCF        :     2h 1m CPU        2h 7m WALL


   This run was terminated on:  20:50:31   5Jul2015            

=------------------------------------------------------------------------------=
   JOB DONE.
=------------------------------------------------------------------------------=
