Setting SGE environment for SCC

     Program PWSCF v.5.1.2 starts on 24Aug2015 at  9:18:19 

     This program is part of the open-source Quantum ESPRESSO suite
     for quantum simulation of materials; please cite
         "P. Giannozzi et al., J. Phys.:Condens. Matter 21 395502 (2009);
          URL http://www.quantum-espresso.org", 
     in publications or presentations arising from this work. More details at
     http://www.quantum-espresso.org/quote

     Parallel version (MPI), running on    32 processors
     R & G space division:  proc/nbgrp/npool/nimage =      32
     Reading input from hollow.H2.Au5859.d.2.3.phi.0.psi.90.in
Warning: card &IONS ignored
Warning: card / ignored
Warning: card &CELL ignored
Warning: card / ignored

     Current dimensions of program PWSCF are:
     Max number of different atomic species (ntypx) = 10
     Max number of k-points (npk) =  40000
     Max angular momentum in pseudopotentials (lmaxx) =  3

     IMPORTANT: XC functional enforced from input :
     Exchange-correlation      = VDW-DF ( 1  4  4  0 1 0)
     Any further DFT definition will be discarded
     Please, verify this is what you really want


     Subspace diagonalization in iterative solution of the eigenvalue problem:
     a serial algorithm will be used


     Parallelization info
     --------------------
     sticks:   dense  smooth     PW     G-vecs:    dense   smooth      PW
     Min         578     289     74               118518    41891    5486
     Max         579     290     75               118533    41932    5497
     Sum       18505    9265   2385              3792731  1341081  175711


     Title: 
     hollow.H2.Au5859.d.2.3.phi.0.psi.90                                        


     bravais-lattice index     =            8
     lattice parameter (alat)  =      24.1233  a.u.
     unit-cell volume          =   28076.2361 (a.u.)^3
     number of atoms/cell      =           75
     number of atomic types    =            3
     number of electrons       =       800.00
     number of Kohn-Sham states=          480
     kinetic-energy cutoff     =      50.0000  Ry
     charge density cutoff     =     400.0000  Ry
     convergence threshold     =      1.0E-08
     mixing beta               =       0.7000
     number of iterations used =            8  plain     mixing
     Exchange-correlation      = VDW-DF ( 1  4  4  0 1 0)

     celldm(1)=  24.123277  celldm(2)=   1.000000  celldm(3)=   2.000000
     celldm(4)=   0.000000  celldm(5)=   0.000000  celldm(6)=   0.000000

     crystal axes: (cart. coord. in units of alat)
               a(1) = (   1.000000   0.000000   0.000000 )  
               a(2) = (   0.000000   1.000000   0.000000 )  
               a(3) = (   0.000000   0.000000   2.000000 )  

     reciprocal axes: (cart. coord. in units 2 pi/alat)
               b(1) = (  1.000000  0.000000  0.000000 )  
               b(2) = (  0.000000  1.000000  0.000000 )  
               b(3) = (  0.000000  0.000000  0.500000 )  


     PseudoPot. # 1 for Au read from file:
     /home/scc/andrejb/qe/pseudo/Au.pbe-nd-van.UPF
     MD5 check sum: 458681b50f36d87ef23c61b04bba420a
     Pseudo is Ultrasoft + core correction, Zval = 11.0
     Generated by new atomic code, or converted to UPF format
     Using radial grid of  985 points,  3 beta functions with: 
                l(1) =   1
                l(2) =   2
                l(3) =   2
     Q(r) pseudized with  8 coefficients,  rinner =    1.100   1.100   1.100
                                                       1.100   1.100

     PseudoPot. # 2 for H  read from file:
     /home/scc/andrejb/qe/pseudo/H.pbe-van_ak.UPF
     MD5 check sum: 403db7282739603aa925980fa9b8608d
     Pseudo is Ultrasoft, Zval =  1.0
     Generated by new atomic code, or converted to UPF format
     Using radial grid of  615 points,  1 beta functions with: 
                l(1) =   0
     Q(r) pseudized with  8 coefficients,  rinner =    0.800

     PseudoPot. # 3 for O  read from file:
     /home/scc/andrejb/qe/pseudo/O.pbe-van_ak.UPF
     MD5 check sum: 4b8c549914a63cae506c6ff22b5af4fe
     Pseudo is Ultrasoft, Zval =  6.0
     Generated by new atomic code, or converted to UPF format
     Using radial grid of  737 points,  4 beta functions with: 
                l(1) =   0
                l(2) =   0
                l(3) =   1
                l(4) =   1
     Q(r) pseudized with  8 coefficients,  rinner =    0.800   0.800   0.800


     vdW kernel table read from file vdW_kernel_table
     MD5 check sum: 48e77a2e26edf626eeb0eaa751ad5cac

     atomic species   valence    mass     pseudopotential
        Au            11.00   196.96657     Au( 1.00)
        H              1.00     1.01000     H ( 1.00)
        O              6.00    16.00000     O ( 1.00)

     No symmetry found



   Cartesian axes

     site n.     atom                  positions (alat units)
         1           O   tau(   1) = (   0.1840006   0.0937550   0.6939744  )
         2           H   tau(   2) = (   0.1666051   0.1666105   0.6794873  )
         3           H   tau(   3) = (   0.1341739   0.0535643   0.6524962  )
         4           Au  tau(   4) = (   0.0000000   0.0000000   0.0000000  )
         5           Au  tau(   5) = (   0.3332217   0.0000000   0.0000000  )
         6           Au  tau(   6) = (   0.6664434   0.0000000   0.0000000  )
         7           Au  tau(   7) = (   0.1666109   0.1666109   0.0000000  )
         8           Au  tau(   8) = (   0.4998326   0.1666109   0.0000000  )
         9           Au  tau(   9) = (   0.8330542   0.1666109   0.0000000  )
        10           Au  tau(  10) = (   0.0000000   0.3332217   0.0000000  )
        11           Au  tau(  11) = (   0.3332217   0.3332217   0.0000000  )
        12           Au  tau(  12) = (   0.6664434   0.3332217   0.0000000  )
        13           Au  tau(  13) = (   0.1666109   0.4998326   0.0000000  )
        14           Au  tau(  14) = (   0.4998326   0.4998326   0.0000000  )
        15           Au  tau(  15) = (   0.8330542   0.4998326   0.0000000  )
        16           Au  tau(  16) = (   0.0000000   0.6664434   0.0000000  )
        17           Au  tau(  17) = (   0.3332217   0.6664434   0.0000000  )
        18           Au  tau(  18) = (   0.6664434   0.6664434   0.0000000  )
        19           Au  tau(  19) = (   0.1666109   0.8330542   0.0000000  )
        20           Au  tau(  20) = (   0.4998326   0.8330542   0.0000000  )
        21           Au  tau(  21) = (   0.8330542   0.8330542   0.0000000  )
        22           Au  tau(  22) = (   0.1666109   0.0000000   0.1666109  )
        23           Au  tau(  23) = (   0.4998326   0.0000000   0.1666109  )
        24           Au  tau(  24) = (   0.8330542   0.0000000   0.1666109  )
        25           Au  tau(  25) = (   0.0000000   0.1666109   0.1666109  )
        26           Au  tau(  26) = (   0.3332217   0.1666109   0.1666109  )
        27           Au  tau(  27) = (   0.6664434   0.1666109   0.1666109  )
        28           Au  tau(  28) = (   0.1666109   0.3332217   0.1666109  )
        29           Au  tau(  29) = (   0.4998326   0.3332217   0.1666109  )
        30           Au  tau(  30) = (   0.8330542   0.3332217   0.1666109  )
        31           Au  tau(  31) = (   0.0000000   0.4998326   0.1666109  )
        32           Au  tau(  32) = (   0.3332217   0.4998326   0.1666109  )
        33           Au  tau(  33) = (   0.6664434   0.4998326   0.1666109  )
        34           Au  tau(  34) = (   0.1666109   0.6664434   0.1666109  )
        35           Au  tau(  35) = (   0.4998326   0.6664434   0.1666109  )
        36           Au  tau(  36) = (   0.8330542   0.6664434   0.1666109  )
        37           Au  tau(  37) = (   0.0000000   0.8330542   0.1666109  )
        38           Au  tau(  38) = (   0.3332217   0.8330542   0.1666109  )
        39           Au  tau(  39) = (   0.6664434   0.8330542   0.1666109  )
        40           Au  tau(  40) = (  -0.0000182  -0.0000182   0.3335478  )
        41           Au  tau(  41) = (   0.3332215  -0.0000181   0.3335473  )
        42           Au  tau(  42) = (   0.6664447  -0.0000183   0.3335481  )
        43           Au  tau(  43) = (  -0.0000181   0.3332215   0.3335473  )
        44           Au  tau(  44) = (   0.3332215   0.3332215   0.3335468  )
        45           Au  tau(  45) = (   0.6664445   0.3332215   0.3335477  )
        46           Au  tau(  46) = (  -0.0000183   0.6664447   0.3335481  )
        47           Au  tau(  47) = (   0.3332215   0.6664445   0.3335477  )
        48           Au  tau(  48) = (   0.6664446   0.6664446   0.3335486  )
        49           Au  tau(  49) = (   0.1666097   0.1666097   0.3335483  )
        50           Au  tau(  50) = (   0.4998320   0.1666098   0.3335477  )
        51           Au  tau(  51) = (   0.8330732   0.1666096   0.3335480  )
        52           Au  tau(  52) = (   0.1666098   0.4998320   0.3335477  )
        53           Au  tau(  53) = (   0.4998322   0.4998322   0.3335470  )
        54           Au  tau(  54) = (   0.8330731   0.4998322   0.3335474  )
        55           Au  tau(  55) = (   0.1666096   0.8330732   0.3335480  )
        56           Au  tau(  56) = (   0.4998322   0.8330731   0.3335474  )
        57           Au  tau(  57) = (   0.8330731   0.8330731   0.3335478  )
        58           Au  tau(  58) = (   0.1666104  -0.0000111   0.4993095  )
        59           Au  tau(  59) = (   0.4998323  -0.0000112   0.4993099  )
        60           Au  tau(  60) = (   0.8330660  -0.0000111   0.4993009  )
        61           Au  tau(  61) = (  -0.0000111   0.1666104   0.4993095  )
        62           Au  tau(  62) = (   0.3332213   0.1666106   0.4993185  )
        63           Au  tau(  63) = (   0.6664437   0.1666106   0.4993187  )
        64           Au  tau(  64) = (   0.1666106   0.3332213   0.4993185  )
        65           Au  tau(  65) = (   0.4998324   0.3332216   0.4993185  )
        66           Au  tau(  66) = (   0.8330658   0.3332215   0.4993102  )
        67           Au  tau(  67) = (  -0.0000112   0.4998323   0.4993099  )
        68           Au  tau(  68) = (   0.3332216   0.4998324   0.4993185  )
        69           Au  tau(  69) = (   0.6664437   0.4998325   0.4993187  )
        70           Au  tau(  70) = (   0.1666106   0.6664437   0.4993187  )
        71           Au  tau(  71) = (   0.4998325   0.6664437   0.4993187  )
        72           Au  tau(  72) = (   0.8330658   0.6664438   0.4993102  )
        73           Au  tau(  73) = (  -0.0000111   0.8330660   0.4993009  )
        74           Au  tau(  74) = (   0.3332215   0.8330658   0.4993102  )
        75           Au  tau(  75) = (   0.6664438   0.8330658   0.4993102  )

     number of k points=     6  Marzari-Vanderbilt smearing, width (Ry)=  0.0200
                       cart. coord. in units 2pi/alat
        k(    1) = (   0.2500000   0.2500000   0.0833333), wk =   0.3333333
        k(    2) = (   0.2500000   0.2500000  -0.2500000), wk =   0.3333333
        k(    3) = (  -0.2500000  -0.2500000   0.0833333), wk =   0.3333333
        k(    4) = (  -0.2500000   0.2500000  -0.0833333), wk =   0.3333333
        k(    5) = (   0.2500000  -0.2500000  -0.0833333), wk =   0.3333333
        k(    6) = (  -0.2500000   0.2500000   0.2500000), wk =   0.3333333

     Dense  grid:  3792731 G-vectors     FFT dimensions: ( 160, 160, 320)

     Smooth grid:  1341081 G-vectors     FFT dimensions: ( 120, 120, 225)

     Largest allocated arrays     est. size (Mb)     dimensions
        Kohn-Sham Wavefunctions        38.58 Mb     (    5267,  480)
        NL pseudopotentials            76.03 Mb     (    5267,  946)
        Each V/rho on FFT grid          3.91 Mb     (  256000)
        Each G-vector array             0.90 Mb     (  118520)
        G-vector shells                 0.08 Mb     (   10286)
     Largest temporary arrays     est. size (Mb)     dimensions
        Auxiliary wavefunctions       154.31 Mb     (    5267, 1920)
        Each subspace H/S matrix       56.25 Mb     (    1920, 1920)
        Each <psi_i|beta_j> matrix      6.93 Mb     (     946,  480)
        Arrays for rho mixing          31.25 Mb     (  256000,    8)

     Initial potential from superposition of free atoms
     Check: negative starting charge=   -1.945233

     starting charge  799.16392, renormalised to  800.00000

     negative rho (up, down):  1.947E+00 0.000E+00


     ************************************************************************
     *
     * You are using vdW-DF for exchange-correlation in this calculation.
     * Please cite the following three references that made this development
     * possible:
     *
     *   M. Dion, H. Rydberg, E. Schroder, D. C. Langreth, and
     *   B. I. Lundqvist, Phys. Rev. Lett. 92, 246401 (2004).
     *
     *   T. Thonhauser, V. R. Cooper, S. Li, A. Puzder, P. Hyldgaard, and
     *   D. C. Langreth, Phys. Rev. B 76, 125112 (2007).
     *
     *   G. Roman-Perez and J. M. Soler, Phys. Rev. Lett. 103, 096102 (2009).
     *
     *
     * If you are using vdW-DF2, please also cite:
     *
     *   K. Lee, E. D. Murray, L. Kong, B. I. Lundqvist, and
     *   D. C. Langreth, Phys. Rev. B 82, 081101(R) (2010).
     *
     *
     * If you are calculating the stress with vdW-DF, please also cite:
     *
     *   R. Sabatini, E. Kucukbenli, B. Kolb, T. Thonhauser, and
     *   S. de Gironcoli, J. Phys.: Condens. Matter 24, 424209 (2012).
     *
     ************************************************************************

     Carrying out vdW-DF run using the following parameters:

     Nqs =      20    Nr_points =    1024   r_max =   100.000
     q_mesh =
               0.00001000     0.04494208     0.09755937     0.15916263
               0.23128650     0.31572767     0.41458969     0.53033537
               0.66584808     0.82450364     1.01025438     1.22772762
               1.48234092     1.78043706     2.12944203     2.53805004
               3.01644009     3.57652955     4.23227104     5.00000000

     Gradients computed in reciprocal space

     ************************************************************************


     Starting wfc are  654 randomized atomic wfcs

     total cpu time spent up to now is      131.1 secs

     Self-consistent Calculation

     iteration #  1     ecut=    50.00 Ry     beta=0.70
     Davidson diagonalization with overlap
     ethr =  1.00E-02,  avg # of iterations =  3.0

     Threshold (ethr) on eigenvalues was too large:
     Diagonalizing with lowered threshold

     Davidson diagonalization with overlap
     ethr =  4.12E-04,  avg # of iterations =  2.0

     negative rho (up, down):  1.947E+00 0.000E+00

     total cpu time spent up to now is      576.4 secs

     total energy              =   -7423.05952657 Ry
     Harris-Foulkes estimate   =   -7426.03165578 Ry
     estimated scf accuracy    <       3.67559833 Ry

     iteration #  2     ecut=    50.00 Ry     beta=0.70
     Davidson diagonalization with overlap
     ethr =  4.59E-04,  avg # of iterations = 11.3

     negative rho (up, down):  1.942E+00 0.000E+00

     total cpu time spent up to now is     1313.7 secs

     total energy              =   -7415.48952151 Ry
     Harris-Foulkes estimate   =   -7432.43609372 Ry
     estimated scf accuracy    <      87.65347271 Ry

     iteration #  3     ecut=    50.00 Ry     beta=0.70
     Davidson diagonalization with overlap
     ethr =  4.59E-04,  avg # of iterations =  6.0

     negative rho (up, down):  1.954E+00 0.000E+00

     total cpu time spent up to now is     1781.9 secs

     total energy              =   -7424.33438597 Ry
     Harris-Foulkes estimate   =   -7425.84813416 Ry
     estimated scf accuracy    <       5.89272688 Ry

     iteration #  4     ecut=    50.00 Ry     beta=0.70
     Davidson diagonalization with overlap
     ethr =  4.59E-04,  avg # of iterations =  4.0

     negative rho (up, down):  1.956E+00 0.000E+00

     total cpu time spent up to now is     2034.3 secs

     total energy              =   -7424.80676937 Ry
     Harris-Foulkes estimate   =   -7425.66766346 Ry
     estimated scf accuracy    <       5.54641315 Ry

     iteration #  5     ecut=    50.00 Ry     beta=0.70
     Davidson diagonalization with overlap
     ethr =  4.59E-04,  avg # of iterations =  5.5

     negative rho (up, down):  1.963E+00 0.000E+00

     total cpu time spent up to now is     2302.7 secs

     total energy              =   -7425.14825997 Ry
     Harris-Foulkes estimate   =   -7425.45268827 Ry
     estimated scf accuracy    <       1.99130266 Ry

     iteration #  6     ecut=    50.00 Ry     beta=0.70
     Davidson diagonalization with overlap
     ethr =  2.49E-04,  avg # of iterations =  3.8

     negative rho (up, down):  1.966E+00 0.000E+00

     total cpu time spent up to now is     2554.5 secs

     total energy              =   -7425.24834293 Ry
     Harris-Foulkes estimate   =   -7425.30803529 Ry
     estimated scf accuracy    <       0.21971674 Ry

     iteration #  7     ecut=    50.00 Ry     beta=0.70
     Davidson diagonalization with overlap
     ethr =  2.75E-05,  avg # of iterations =  7.7

     negative rho (up, down):  1.970E+00 0.000E+00

     total cpu time spent up to now is     2854.8 secs

     total energy              =   -7425.26001808 Ry
     Harris-Foulkes estimate   =   -7425.29776499 Ry
     estimated scf accuracy    <       0.18765517 Ry

     iteration #  8     ecut=    50.00 Ry     beta=0.70
     Davidson diagonalization with overlap
     ethr =  2.35E-05,  avg # of iterations =  3.0

     negative rho (up, down):  1.971E+00 0.000E+00

     total cpu time spent up to now is     3087.2 secs

     total energy              =   -7425.26713642 Ry
     Harris-Foulkes estimate   =   -7425.28399480 Ry
     estimated scf accuracy    <       0.06240650 Ry

     iteration #  9     ecut=    50.00 Ry     beta=0.70
     Davidson diagonalization with overlap
     ethr =  7.80E-06,  avg # of iterations =  9.8

     negative rho (up, down):  1.972E+00 0.000E+00

     total cpu time spent up to now is     3417.9 secs

     total energy              =   -7425.27055693 Ry
     Harris-Foulkes estimate   =   -7425.27764205 Ry
     estimated scf accuracy    <       0.02173747 Ry

     iteration # 10     ecut=    50.00 Ry     beta=0.70
     Davidson diagonalization with overlap
     ethr =  2.72E-06,  avg # of iterations =  7.7

     negative rho (up, down):  1.972E+00 0.000E+00

     total cpu time spent up to now is     3733.1 secs

     total energy              =   -7425.27293648 Ry
     Harris-Foulkes estimate   =   -7425.27467113 Ry
     estimated scf accuracy    <       0.00446132 Ry

     iteration # 11     ecut=    50.00 Ry     beta=0.70
     Davidson diagonalization with overlap
     ethr =  5.58E-07,  avg # of iterations =  3.0

     negative rho (up, down):  1.973E+00 0.000E+00

     total cpu time spent up to now is     3990.2 secs

     total energy              =   -7425.27351618 Ry
     Harris-Foulkes estimate   =   -7425.27429052 Ry
     estimated scf accuracy    <       0.00225906 Ry

     iteration # 12     ecut=    50.00 Ry     beta=0.70
     Davidson diagonalization with overlap
     ethr =  2.82E-07,  avg # of iterations =  2.0

     negative rho (up, down):  1.973E+00 0.000E+00

     total cpu time spent up to now is     4219.2 secs

     total energy              =   -7425.27358831 Ry
     Harris-Foulkes estimate   =   -7425.27416524 Ry
     estimated scf accuracy    <       0.00237714 Ry

     iteration # 13     ecut=    50.00 Ry     beta=0.70
     Davidson diagonalization with overlap
     ethr =  2.82E-07,  avg # of iterations =  3.0

     negative rho (up, down):  1.973E+00 0.000E+00

     total cpu time spent up to now is     4466.3 secs

     total energy              =   -7425.27353914 Ry
     Harris-Foulkes estimate   =   -7425.27435134 Ry
     estimated scf accuracy    <       0.00413887 Ry

     iteration # 14     ecut=    50.00 Ry     beta=0.70
     Davidson diagonalization with overlap
     ethr =  2.82E-07,  avg # of iterations =  2.0

     negative rho (up, down):  1.973E+00 0.000E+00

     total cpu time spent up to now is     4689.5 secs

     total energy              =   -7425.27391714 Ry
     Harris-Foulkes estimate   =   -7425.27394173 Ry
     estimated scf accuracy    <       0.00007642 Ry

     iteration # 15     ecut=    50.00 Ry     beta=0.70
     Davidson diagonalization with overlap
     ethr =  9.55E-09,  avg # of iterations =  3.0

     negative rho (up, down):  1.973E+00 0.000E+00

     total cpu time spent up to now is     4975.9 secs

     total energy              =   -7425.27392481 Ry
     Harris-Foulkes estimate   =   -7425.27394816 Ry
     estimated scf accuracy    <       0.00012361 Ry

     iteration # 16     ecut=    50.00 Ry     beta=0.70
     Davidson diagonalization with overlap
     ethr =  9.55E-09,  avg # of iterations =  2.0

     negative rho (up, down):  1.973E+00 0.000E+00

     total cpu time spent up to now is     5199.6 secs

     total energy              =   -7425.27393127 Ry
     Harris-Foulkes estimate   =   -7425.27394867 Ry
     estimated scf accuracy    <       0.00011520 Ry

     iteration # 17     ecut=    50.00 Ry     beta=0.70
     Davidson diagonalization with overlap
     ethr =  9.55E-09,  avg # of iterations =  1.0

     negative rho (up, down):  1.973E+00 0.000E+00

     total cpu time spent up to now is     5408.8 secs

     total energy              =   -7425.27393889 Ry
     Harris-Foulkes estimate   =   -7425.27394080 Ry
     estimated scf accuracy    <       0.00000682 Ry

     iteration # 18     ecut=    50.00 Ry     beta=0.70
     Davidson diagonalization with overlap
     ethr =  8.52E-10,  avg # of iterations =  2.0

     negative rho (up, down):  1.973E+00 0.000E+00

     total cpu time spent up to now is     5626.8 secs

     total energy              =   -7425.27393960 Ry
     Harris-Foulkes estimate   =   -7425.27394038 Ry
     estimated scf accuracy    <       0.00000289 Ry

     iteration # 19     ecut=    50.00 Ry     beta=0.70
     Davidson diagonalization with overlap
     ethr =  3.61E-10,  avg # of iterations =  2.0

     negative rho (up, down):  1.973E+00 0.000E+00

     total cpu time spent up to now is     5846.4 secs

     total energy              =   -7425.27393982 Ry
     Harris-Foulkes estimate   =   -7425.27394011 Ry
     estimated scf accuracy    <       0.00000078 Ry

     iteration # 20     ecut=    50.00 Ry     beta=0.70
     Davidson diagonalization with overlap
     ethr =  9.74E-11,  avg # of iterations =  3.0

     negative rho (up, down):  1.973E+00 0.000E+00

     total cpu time spent up to now is     6107.0 secs

     total energy              =   -7425.27393979 Ry
     Harris-Foulkes estimate   =   -7425.27394013 Ry
     estimated scf accuracy    <       0.00000123 Ry

     iteration # 21     ecut=    50.00 Ry     beta=0.70
     Davidson diagonalization with overlap
     ethr =  9.74E-11,  avg # of iterations =  2.0

     negative rho (up, down):  1.973E+00 0.000E+00

     total cpu time spent up to now is     6334.6 secs

     total energy              =   -7425.27393990 Ry
     Harris-Foulkes estimate   =   -7425.27393998 Ry
     estimated scf accuracy    <       0.00000021 Ry

     iteration # 22     ecut=    50.00 Ry     beta=0.70
     Davidson diagonalization with overlap
     ethr =  2.58E-11,  avg # of iterations =  3.0

     negative rho (up, down):  1.973E+00 0.000E+00

     total cpu time spent up to now is     6569.5 secs

     total energy              =   -7425.27393990 Ry
     Harris-Foulkes estimate   =   -7425.27393995 Ry
     estimated scf accuracy    <       0.00000010 Ry

     iteration # 23     ecut=    50.00 Ry     beta=0.70
     Davidson diagonalization with overlap
     ethr =  1.24E-11,  avg # of iterations =  2.0

     negative rho (up, down):  1.973E+00 0.000E+00

     total cpu time spent up to now is     6790.3 secs

     total energy              =   -7425.27393991 Ry
     Harris-Foulkes estimate   =   -7425.27393993 Ry
     estimated scf accuracy    <       0.00000007 Ry

     iteration # 24     ecut=    50.00 Ry     beta=0.70
     Davidson diagonalization with overlap
     ethr =  8.76E-12,  avg # of iterations =  2.5

     negative rho (up, down):  1.973E+00 0.000E+00

     total cpu time spent up to now is     7036.7 secs

     total energy              =   -7425.27393991 Ry
     Harris-Foulkes estimate   =   -7425.27393994 Ry
     estimated scf accuracy    <       0.00000016 Ry

     iteration # 25     ecut=    50.00 Ry     beta=0.70
     Davidson diagonalization with overlap
     ethr =  8.76E-12,  avg # of iterations =  2.0

     negative rho (up, down):  1.973E+00 0.000E+00

     total cpu time spent up to now is     7262.8 secs

     End of self-consistent calculation

          k = 0.2500 0.2500 0.0833 (167653 PWs)   bands (ev):

   -19.7843  -7.7381  -6.8680  -6.3411  -6.3380  -5.9098  -5.5058  -5.4090
    -5.4065  -5.2118  -5.2112  -5.1028  -5.0933  -5.0150  -4.9945  -4.9195
    -4.8358  -4.8301  -4.7929  -4.7914  -4.6354  -4.6145  -4.6133  -4.6121
    -4.6053  -4.5510  -4.5502  -4.5395  -4.5378  -4.5008  -4.4974  -4.4882
    -4.4471  -4.4462  -4.4138  -4.4130  -4.3747  -4.3594  -4.3543  -4.3478
    -4.3419  -4.3296  -4.3289  -4.2978  -4.2714  -4.2703  -4.2632  -4.2617
    -4.2392  -4.1947  -4.1704  -4.1680  -4.1655  -4.1643  -4.1539  -4.1498
    -4.1483  -4.1471  -4.1038  -4.0834  -4.0534  -4.0327  -4.0246  -4.0070
    -3.9965  -3.9817  -3.9779  -3.9707  -3.9698  -3.9649  -3.9333  -3.9145
    -3.9098  -3.9014  -3.8915  -3.7974  -3.7963  -3.7904  -3.7839  -3.7527
    -3.7449  -3.7274  -3.7005  -3.6979  -3.6704  -3.6688  -3.6534  -3.6494
    -3.6367  -3.6353  -3.5808  -3.5798  -3.5561  -3.5450  -3.5378  -3.5340
    -3.5323  -3.5293  -3.5089  -3.5050  -3.4690  -3.4668  -3.4506  -3.4468
    -3.4140  -3.4122  -3.3979  -3.3676  -3.3639  -3.3312  -3.3297  -3.2965
    -3.2857  -3.2852  -3.2747  -3.2713  -3.2663  -3.2656  -3.2332  -3.2170
    -3.1798  -3.1783  -3.1690  -3.1625  -3.1596  -3.1570  -3.1357  -3.1344
    -3.1154  -3.1138  -3.1114  -3.0874  -3.0844  -3.0780  -3.0740  -3.0730
    -3.0376  -3.0365  -3.0032  -3.0007  -2.9978  -2.9954  -2.9941  -2.9141
    -2.9097  -2.9051  -2.9028  -2.9004  -2.8988  -2.8959  -2.8943  -2.8929
    -2.8920  -2.8833  -2.8753  -2.8661  -2.8571  -2.8561  -2.8536  -2.8429
    -2.8352  -2.8036  -2.8004  -2.7980  -2.7971  -2.7930  -2.7750  -2.7742
    -2.7673  -2.7665  -2.7623  -2.7152  -2.7047  -2.7012  -2.6982  -2.6951
    -2.6924  -2.6725  -2.6151  -2.6078  -2.6060  -2.6014  -2.5936  -2.5908
    -2.5891  -2.5810  -2.5734  -2.5626  -2.5400  -2.5359  -2.5313  -2.5280
    -2.5268  -2.4951  -2.4902  -2.4866  -2.4792  -2.4762  -2.4749  -2.4510
    -2.4266  -2.4173  -2.3740  -2.3586  -2.3558  -2.3401  -2.3366  -2.3340
    -2.3012  -2.2842  -2.2653  -2.2614  -2.2389  -2.2319  -2.2275  -2.2142
    -2.2064  -2.2007  -2.1964  -2.1750  -2.1452  -2.1425  -2.1254  -2.1223
    -2.1204  -2.1162  -2.1143  -2.1027  -2.0984  -2.0963  -2.0953  -2.0885
    -2.0857  -2.0839  -2.0796  -2.0710  -2.0585  -2.0575  -2.0505  -2.0486
    -2.0463  -2.0349  -2.0270  -2.0202  -2.0119  -2.0103  -2.0035  -1.9727
    -1.9504  -1.9353  -1.9260  -1.8979  -1.8817  -1.8796  -1.8692  -1.8633
    -1.8465  -1.8374  -1.8344  -1.8311  -1.8285  -1.8279  -1.8246  -1.8072
    -1.7931  -1.7914  -1.7823  -1.7485  -1.7379  -1.7121  -1.7020  -1.6601
    -1.6569  -1.6449  -1.6254  -1.6226  -1.6161  -1.6007  -1.5976  -1.5860
    -1.5821  -1.5779  -1.5753  -1.5748  -1.5734  -1.5712  -1.5617  -1.5538
    -1.5456  -1.5279  -1.5226  -1.5091  -1.5064  -1.4818  -1.4786  -1.4751
    -1.4740  -1.4690  -1.4604  -1.4493  -1.4391  -1.4312  -1.4212  -1.4123
    -1.4034  -1.3938  -1.3854  -1.3677  -1.3633  -1.3579  -1.3443  -1.3191
    -1.3161  -1.3102  -1.3071  -1.3046  -1.2940  -1.2815  -1.2797  -1.2713
    -1.2627  -1.2596  -1.2521  -1.2485  -1.2476  -1.2374  -1.2345  -1.2226
    -1.2179  -1.2141  -1.2127  -1.2032  -1.1979  -1.1935  -1.1805  -1.1522
    -1.1500  -1.1468  -1.1406  -1.1400  -1.1323  -1.1055  -1.0865  -1.0843
    -1.0835  -1.0819  -1.0802  -1.0752  -1.0697  -1.0590  -1.0355  -1.0255
    -1.0193  -1.0159  -1.0113  -0.9947  -0.9927  -0.9832  -0.9566  -0.9461
    -0.9227  -0.9175  -0.8919  -0.8906  -0.8884  -0.8864  -0.8831  -0.8789
    -0.8764  -0.8762  -0.8710  -0.8637  -0.8401  -0.8392  -0.8229  -0.8189
    -0.8147  -0.8146  -0.8127  -0.7960  -0.7675  -0.5268  -0.5062  -0.4538
    -0.4268  -0.4109  -0.2481  -0.1884  -0.1860  -0.1416   0.1294   0.1414
     0.4584   0.4745   0.5589   0.5631   0.5996   0.6082   0.7432   0.7644
     0.8675   0.8726   0.9684   1.5582   1.5738   1.5752   1.6092   1.6205
     1.6551   1.6842   1.7423   1.7542   1.9486   1.9553   2.1889   2.2623
     2.2741   2.2852   2.6552   2.6741   2.7350   2.7359   2.7449   2.7484
     2.8947   2.8953   2.9441   3.0375   3.0550   3.2727   3.2782   3.4046
     3.4284   3.4355   3.6994   3.7121   3.8167   3.8357   3.8373   3.8931
     3.9334   4.0198   4.0291   4.2554   4.2611   4.3470   4.3565   4.4680
     4.4747   4.4909   4.5062   4.6608   5.2523   5.3193   5.3573   5.3986
     5.4096   5.5746   5.5896   5.6182   5.6570   5.6914   5.7017   5.7110
     5.7433   5.7487   5.7637   5.7996   6.0336   6.0475   6.0676   6.0834
     6.0907   6.0954   6.1085   6.1177   6.1442   6.1649   6.1731   6.2050

          k = 0.2500 0.2500-0.2500 (167588 PWs)   bands (ev):

   -19.7843  -7.7381  -6.8680  -6.3411  -6.3380  -5.9098  -5.5058  -5.4090
    -5.4065  -5.2118  -5.2112  -5.1028  -5.0933  -5.0150  -4.9945  -4.9195
    -4.8358  -4.8301  -4.7929  -4.7914  -4.6354  -4.6146  -4.6133  -4.6121
    -4.6053  -4.5510  -4.5502  -4.5395  -4.5378  -4.5008  -4.4974  -4.4882
    -4.4471  -4.4462  -4.4138  -4.4130  -4.3747  -4.3594  -4.3543  -4.3478
    -4.3419  -4.3296  -4.3289  -4.2978  -4.2714  -4.2703  -4.2632  -4.2617
    -4.2392  -4.1947  -4.1704  -4.1680  -4.1655  -4.1643  -4.1539  -4.1498
    -4.1483  -4.1471  -4.1038  -4.0834  -4.0534  -4.0327  -4.0246  -4.0070
    -3.9965  -3.9817  -3.9779  -3.9707  -3.9698  -3.9649  -3.9333  -3.9145
    -3.9098  -3.9014  -3.8915  -3.7974  -3.7963  -3.7904  -3.7839  -3.7527
    -3.7449  -3.7274  -3.7005  -3.6979  -3.6703  -3.6688  -3.6534  -3.6494
    -3.6367  -3.6353  -3.5808  -3.5798  -3.5561  -3.5450  -3.5378  -3.5340
    -3.5323  -3.5293  -3.5089  -3.5050  -3.4690  -3.4668  -3.4506  -3.4468
    -3.4140  -3.4122  -3.3979  -3.3676  -3.3639  -3.3312  -3.3297  -3.2965
    -3.2857  -3.2852  -3.2746  -3.2713  -3.2663  -3.2656  -3.2332  -3.2170
    -3.1798  -3.1783  -3.1690  -3.1625  -3.1596  -3.1570  -3.1357  -3.1344
    -3.1154  -3.1138  -3.1114  -3.0874  -3.0844  -3.0780  -3.0740  -3.0730
    -3.0376  -3.0365  -3.0031  -3.0007  -2.9978  -2.9954  -2.9941  -2.9141
    -2.9097  -2.9051  -2.9028  -2.9004  -2.8988  -2.8959  -2.8943  -2.8929
    -2.8920  -2.8833  -2.8753  -2.8661  -2.8571  -2.8561  -2.8536  -2.8429
    -2.8352  -2.8036  -2.8004  -2.7980  -2.7971  -2.7930  -2.7750  -2.7742
    -2.7673  -2.7665  -2.7623  -2.7152  -2.7047  -2.7012  -2.6982  -2.6951
    -2.6924  -2.6725  -2.6151  -2.6078  -2.6060  -2.6014  -2.5936  -2.5908
    -2.5891  -2.5810  -2.5734  -2.5626  -2.5400  -2.5359  -2.5312  -2.5280
    -2.5268  -2.4951  -2.4902  -2.4866  -2.4792  -2.4762  -2.4749  -2.4510
    -2.4266  -2.4173  -2.3740  -2.3586  -2.3558  -2.3401  -2.3366  -2.3340
    -2.3012  -2.2842  -2.2653  -2.2614  -2.2389  -2.2319  -2.2275  -2.2142
    -2.2064  -2.2007  -2.1964  -2.1750  -2.1451  -2.1425  -2.1254  -2.1223
    -2.1204  -2.1162  -2.1143  -2.1027  -2.0984  -2.0963  -2.0953  -2.0885
    -2.0857  -2.0839  -2.0796  -2.0710  -2.0585  -2.0575  -2.0505  -2.0486
    -2.0463  -2.0349  -2.0270  -2.0202  -2.0119  -2.0103  -2.0034  -1.9727
    -1.9504  -1.9353  -1.9260  -1.8979  -1.8817  -1.8796  -1.8691  -1.8633
    -1.8465  -1.8374  -1.8344  -1.8311  -1.8285  -1.8279  -1.8246  -1.8072
    -1.7931  -1.7914  -1.7823  -1.7485  -1.7379  -1.7121  -1.7020  -1.6601
    -1.6569  -1.6449  -1.6254  -1.6226  -1.6161  -1.6007  -1.5977  -1.5860
    -1.5821  -1.5779  -1.5753  -1.5748  -1.5734  -1.5712  -1.5617  -1.5538
    -1.5456  -1.5279  -1.5226  -1.5091  -1.5064  -1.4818  -1.4786  -1.4751
    -1.4740  -1.4690  -1.4604  -1.4493  -1.4391  -1.4312  -1.4212  -1.4123
    -1.4034  -1.3938  -1.3854  -1.3677  -1.3633  -1.3579  -1.3443  -1.3191
    -1.3161  -1.3101  -1.3071  -1.3046  -1.2940  -1.2815  -1.2797  -1.2713
    -1.2627  -1.2596  -1.2521  -1.2485  -1.2476  -1.2374  -1.2345  -1.2226
    -1.2179  -1.2141  -1.2127  -1.2032  -1.1979  -1.1935  -1.1805  -1.1522
    -1.1500  -1.1468  -1.1406  -1.1400  -1.1323  -1.1055  -1.0865  -1.0843
    -1.0835  -1.0819  -1.0802  -1.0752  -1.0697  -1.0590  -1.0355  -1.0255
    -1.0193  -1.0159  -1.0113  -0.9947  -0.9927  -0.9832  -0.9566  -0.9461
    -0.9227  -0.9175  -0.8919  -0.8906  -0.8884  -0.8864  -0.8831  -0.8789
    -0.8764  -0.8762  -0.8709  -0.8637  -0.8401  -0.8392  -0.8229  -0.8189
    -0.8147  -0.8146  -0.8127  -0.7959  -0.7675  -0.5268  -0.5062  -0.4538
    -0.4268  -0.4109  -0.2481  -0.1884  -0.1860  -0.1416   0.1294   0.1414
     0.4584   0.4745   0.5589   0.5631   0.5996   0.6082   0.7432   0.7644
     0.8675   0.8726   0.9684   1.5582   1.5738   1.5752   1.6092   1.6205
     1.6551   1.6842   1.7423   1.7542   1.9486   1.9553   2.1889   2.2623
     2.2741   2.2852   2.6552   2.6741   2.7350   2.7359   2.7449   2.7484
     2.8947   2.8953   2.9441   3.0375   3.0550   3.2727   3.2782   3.4046
     3.4284   3.4355   3.6994   3.7121   3.8167   3.8357   3.8373   3.8931
     3.9334   4.0198   4.0291   4.2554   4.2611   4.3470   4.3565   4.4680
     4.4747   4.4909   4.5062   4.6609   5.2496   5.3190   5.3373   5.3977
     5.4096   5.5743   5.5896   5.6176   5.6738   5.6959   5.7042   5.7253
     5.7473   5.7603   5.7706   5.8000   6.0331   6.0469   6.0682   6.0836
     6.0907   6.0954   6.1086   6.1150   6.1375   6.1596   6.2023   6.2605

          k =-0.2500-0.2500 0.0833 (167653 PWs)   bands (ev):

   -19.7843  -7.7381  -6.8680  -6.3411  -6.3380  -5.9098  -5.5058  -5.4090
    -5.4065  -5.2118  -5.2112  -5.1028  -5.0933  -5.0150  -4.9945  -4.9195
    -4.8358  -4.8301  -4.7929  -4.7914  -4.6354  -4.6145  -4.6133  -4.6121
    -4.6053  -4.5510  -4.5502  -4.5395  -4.5378  -4.5008  -4.4974  -4.4882
    -4.4471  -4.4462  -4.4138  -4.4130  -4.3747  -4.3594  -4.3543  -4.3478
    -4.3419  -4.3296  -4.3289  -4.2978  -4.2714  -4.2703  -4.2632  -4.2617
    -4.2392  -4.1947  -4.1704  -4.1680  -4.1655  -4.1643  -4.1539  -4.1498
    -4.1483  -4.1471  -4.1038  -4.0834  -4.0534  -4.0327  -4.0246  -4.0070
    -3.9965  -3.9817  -3.9779  -3.9707  -3.9698  -3.9649  -3.9333  -3.9145
    -3.9098  -3.9014  -3.8915  -3.7974  -3.7963  -3.7904  -3.7839  -3.7527
    -3.7449  -3.7274  -3.7005  -3.6979  -3.6704  -3.6688  -3.6534  -3.6494
    -3.6367  -3.6353  -3.5808  -3.5798  -3.5561  -3.5450  -3.5378  -3.5340
    -3.5323  -3.5293  -3.5089  -3.5050  -3.4690  -3.4668  -3.4506  -3.4468
    -3.4140  -3.4122  -3.3979  -3.3676  -3.3639  -3.3312  -3.3297  -3.2965
    -3.2857  -3.2852  -3.2747  -3.2713  -3.2663  -3.2656  -3.2332  -3.2170
    -3.1798  -3.1783  -3.1690  -3.1625  -3.1596  -3.1570  -3.1357  -3.1344
    -3.1154  -3.1138  -3.1114  -3.0874  -3.0844  -3.0780  -3.0740  -3.0730
    -3.0376  -3.0365  -3.0032  -3.0007  -2.9978  -2.9954  -2.9941  -2.9141
    -2.9097  -2.9051  -2.9028  -2.9004  -2.8988  -2.8959  -2.8943  -2.8929
    -2.8920  -2.8833  -2.8753  -2.8661  -2.8571  -2.8561  -2.8536  -2.8429
    -2.8352  -2.8036  -2.8004  -2.7980  -2.7971  -2.7930  -2.7750  -2.7742
    -2.7673  -2.7665  -2.7623  -2.7152  -2.7047  -2.7012  -2.6982  -2.6951
    -2.6924  -2.6725  -2.6151  -2.6078  -2.6060  -2.6014  -2.5936  -2.5908
    -2.5891  -2.5810  -2.5734  -2.5626  -2.5400  -2.5359  -2.5313  -2.5280
    -2.5268  -2.4951  -2.4902  -2.4866  -2.4792  -2.4762  -2.4749  -2.4510
    -2.4266  -2.4173  -2.3740  -2.3586  -2.3558  -2.3401  -2.3366  -2.3340
    -2.3012  -2.2842  -2.2653  -2.2614  -2.2389  -2.2319  -2.2275  -2.2142
    -2.2064  -2.2007  -2.1964  -2.1750  -2.1452  -2.1425  -2.1254  -2.1223
    -2.1204  -2.1162  -2.1143  -2.1027  -2.0984  -2.0963  -2.0953  -2.0885
    -2.0857  -2.0839  -2.0796  -2.0710  -2.0585  -2.0575  -2.0505  -2.0486
    -2.0463  -2.0349  -2.0270  -2.0202  -2.0119  -2.0103  -2.0035  -1.9727
    -1.9504  -1.9353  -1.9260  -1.8979  -1.8817  -1.8796  -1.8692  -1.8633
    -1.8465  -1.8374  -1.8344  -1.8311  -1.8285  -1.8279  -1.8246  -1.8072
    -1.7931  -1.7914  -1.7823  -1.7485  -1.7379  -1.7121  -1.7020  -1.6601
    -1.6569  -1.6449  -1.6254  -1.6226  -1.6161  -1.6007  -1.5976  -1.5860
    -1.5821  -1.5779  -1.5753  -1.5748  -1.5734  -1.5712  -1.5617  -1.5538
    -1.5456  -1.5279  -1.5226  -1.5091  -1.5064  -1.4818  -1.4786  -1.4751
    -1.4740  -1.4690  -1.4604  -1.4493  -1.4391  -1.4312  -1.4212  -1.4123
    -1.4034  -1.3938  -1.3854  -1.3677  -1.3633  -1.3579  -1.3443  -1.3191
    -1.3161  -1.3102  -1.3071  -1.3046  -1.2940  -1.2815  -1.2797  -1.2713
    -1.2627  -1.2596  -1.2521  -1.2485  -1.2476  -1.2374  -1.2345  -1.2226
    -1.2179  -1.2141  -1.2127  -1.2032  -1.1979  -1.1935  -1.1805  -1.1522
    -1.1500  -1.1468  -1.1406  -1.1400  -1.1323  -1.1055  -1.0865  -1.0843
    -1.0835  -1.0819  -1.0802  -1.0752  -1.0697  -1.0590  -1.0355  -1.0255
    -1.0193  -1.0159  -1.0113  -0.9947  -0.9927  -0.9832  -0.9566  -0.9461
    -0.9227  -0.9175  -0.8919  -0.8906  -0.8884  -0.8864  -0.8831  -0.8789
    -0.8764  -0.8762  -0.8710  -0.8637  -0.8401  -0.8392  -0.8229  -0.8189
    -0.8147  -0.8146  -0.8127  -0.7960  -0.7675  -0.5268  -0.5062  -0.4538
    -0.4268  -0.4109  -0.2481  -0.1884  -0.1860  -0.1416   0.1294   0.1414
     0.4584   0.4745   0.5589   0.5631   0.5996   0.6082   0.7432   0.7644
     0.8675   0.8726   0.9684   1.5582   1.5738   1.5752   1.6092   1.6205
     1.6551   1.6842   1.7423   1.7542   1.9486   1.9553   2.1889   2.2623
     2.2741   2.2852   2.6552   2.6741   2.7350   2.7359   2.7449   2.7484
     2.8947   2.8953   2.9441   3.0375   3.0550   3.2727   3.2782   3.4046
     3.4284   3.4355   3.6994   3.7121   3.8167   3.8357   3.8373   3.8931
     3.9334   4.0198   4.0291   4.2554   4.2611   4.3470   4.3565   4.4680
     4.4747   4.4909   4.5062   4.6608   5.2523   5.3192   5.3572   5.3986
     5.4096   5.5748   5.5897   5.6172   5.6571   5.6917   5.7018   5.7115
     5.7431   5.7486   5.7639   5.7996   6.0338   6.0472   6.0676   6.0833
     6.0907   6.0954   6.1086   6.1182   6.1440   6.1649   6.1734   6.2045

          k =-0.2500 0.2500-0.0833 (167653 PWs)   bands (ev):

   -19.7843  -7.7381  -6.8681  -6.3408  -6.3381  -5.9099  -5.5058  -5.4089
    -5.4066  -5.2123  -5.2105  -5.1036  -5.0928  -5.0155  -4.9941  -4.9193
    -4.8348  -4.8304  -4.7945  -4.7910  -4.6347  -4.6153  -4.6140  -4.6118
    -4.6053  -4.5517  -4.5497  -4.5393  -4.5373  -4.5018  -4.4956  -4.4875
    -4.4469  -4.4461  -4.4148  -4.4118  -4.3780  -4.3589  -4.3528  -4.3481
    -4.3417  -4.3295  -4.3289  -4.2951  -4.2710  -4.2705  -4.2645  -4.2617
    -4.2363  -4.1941  -4.1836  -4.1659  -4.1642  -4.1620  -4.1542  -4.1495
    -4.1481  -4.1469  -4.1097  -4.0823  -4.0410  -4.0337  -4.0293  -4.0094
    -3.9945  -3.9863  -3.9719  -3.9701  -3.9683  -3.9652  -3.9319  -3.9158
    -3.9125  -3.9013  -3.8973  -3.7988  -3.7956  -3.7892  -3.7749  -3.7527
    -3.7416  -3.7272  -3.7018  -3.6965  -3.6705  -3.6693  -3.6502  -3.6478
    -3.6391  -3.6346  -3.5803  -3.5787  -3.5716  -3.5442  -3.5396  -3.5346
    -3.5325  -3.5297  -3.5067  -3.5036  -3.4710  -3.4671  -3.4513  -3.4417
    -3.4165  -3.4094  -3.3970  -3.3712  -3.3671  -3.3327  -3.3290  -3.2929
    -3.2858  -3.2851  -3.2719  -3.2687  -3.2659  -3.2646  -3.2340  -3.2164
    -3.1806  -3.1788  -3.1686  -3.1629  -3.1589  -3.1573  -3.1352  -3.1342
    -3.1165  -3.1135  -3.1105  -3.0872  -3.0849  -3.0784  -3.0760  -3.0721
    -3.0389  -3.0376  -3.0054  -2.9984  -2.9978  -2.9953  -2.9938  -2.9148
    -2.9112  -2.9054  -2.9028  -2.8997  -2.8994  -2.8975  -2.8960  -2.8928
    -2.8921  -2.8834  -2.8754  -2.8644  -2.8617  -2.8570  -2.8542  -2.8421
    -2.8412  -2.8011  -2.7998  -2.7978  -2.7942  -2.7918  -2.7760  -2.7739
    -2.7694  -2.7666  -2.7624  -2.7150  -2.7056  -2.7024  -2.6979  -2.6973
    -2.6941  -2.6665  -2.6132  -2.6080  -2.6071  -2.6016  -2.5976  -2.5908
    -2.5870  -2.5764  -2.5750  -2.5509  -2.5420  -2.5362  -2.5328  -2.5265
    -2.5262  -2.4937  -2.4899  -2.4837  -2.4781  -2.4761  -2.4745  -2.4437
    -2.4283  -2.4114  -2.3736  -2.3597  -2.3544  -2.3423  -2.3348  -2.3342
    -2.2880  -2.2842  -2.2651  -2.2595  -2.2462  -2.2327  -2.2282  -2.2219
    -2.2092  -2.2011  -2.1985  -2.1718  -2.1526  -2.1377  -2.1270  -2.1242
    -2.1224  -2.1156  -2.1142  -2.1053  -2.0995  -2.0951  -2.0928  -2.0875
    -2.0870  -2.0827  -2.0769  -2.0691  -2.0589  -2.0569  -2.0546  -2.0488
    -2.0468  -2.0332  -2.0263  -2.0207  -2.0123  -2.0114  -2.0032  -1.9839
    -1.9644  -1.9360  -1.9312  -1.8980  -1.8820  -1.8800  -1.8695  -1.8619
    -1.8466  -1.8420  -1.8343  -1.8316  -1.8298  -1.8280  -1.8248  -1.7983
    -1.7924  -1.7913  -1.7634  -1.7494  -1.7427  -1.7126  -1.6974  -1.6606
    -1.6564  -1.6441  -1.6260  -1.6214  -1.6155  -1.6048  -1.5955  -1.5846
    -1.5827  -1.5790  -1.5766  -1.5751  -1.5735  -1.5726  -1.5649  -1.5537
    -1.5468  -1.5304  -1.5245  -1.5086  -1.5015  -1.4822  -1.4782  -1.4759
    -1.4737  -1.4686  -1.4624  -1.4505  -1.4385  -1.4314  -1.4216  -1.4115
    -1.4030  -1.3951  -1.3775  -1.3671  -1.3634  -1.3585  -1.3454  -1.3229
    -1.3164  -1.3124  -1.3096  -1.3049  -1.2896  -1.2834  -1.2791  -1.2712
    -1.2640  -1.2585  -1.2535  -1.2476  -1.2470  -1.2368  -1.2331  -1.2237
    -1.2180  -1.2158  -1.2132  -1.2024  -1.2007  -1.1923  -1.1699  -1.1536
    -1.1480  -1.1464  -1.1445  -1.1402  -1.1308  -1.1052  -1.0882  -1.0846
    -1.0837  -1.0826  -1.0799  -1.0751  -1.0634  -1.0592  -1.0400  -1.0234
    -1.0161  -1.0150  -1.0069  -0.9946  -0.9923  -0.9834  -0.9554  -0.9461
    -0.9224  -0.9174  -0.8923  -0.8916  -0.8882  -0.8863  -0.8833  -0.8784
    -0.8764  -0.8752  -0.8708  -0.8674  -0.8407  -0.8387  -0.8222  -0.8186
    -0.8154  -0.8145  -0.8128  -0.7954  -0.7671  -0.5275  -0.5061  -0.4514
    -0.4282  -0.4120  -0.2528  -0.1895  -0.1868  -0.1401   0.1299   0.1409
     0.4621   0.4730   0.5578   0.5634   0.6003   0.6049   0.7449   0.7581
     0.8676   0.8733   0.9680   1.5561   1.5730   1.5769   1.6121   1.6207
     1.6659   1.6776   1.7417   1.7535   1.9468   1.9566   2.1919   2.2649
     2.2739   2.2837   2.6626   2.6709   2.7331   2.7395   2.7451   2.7471
     2.8930   2.8969   2.9488   3.0406   3.0420   3.2681   3.2754   3.4043
     3.4267   3.4386   3.7015   3.7073   3.8181   3.8354   3.8373   3.9109
     3.9203   4.0172   4.0250   4.2505   4.2636   4.3492   4.3543   4.4625
     4.4760   4.4961   4.5165   4.6620   5.2692   5.3007   5.3620   5.3987
     5.4080   5.5736   5.5844   5.6231   5.6615   5.6959   5.7031   5.7254
     5.7282   5.7427   5.7553   5.7960   6.0348   6.0614   6.0693   6.0844
     6.0867   6.0960   6.1084   6.1134   6.1487   6.1606   6.1775   6.1897

          k = 0.2500-0.2500-0.0833 (167653 PWs)   bands (ev):

   -19.7843  -7.7381  -6.8681  -6.3408  -6.3381  -5.9099  -5.5058  -5.4089
    -5.4066  -5.2123  -5.2105  -5.1036  -5.0928  -5.0155  -4.9941  -4.9193
    -4.8348  -4.8304  -4.7945  -4.7910  -4.6347  -4.6153  -4.6140  -4.6118
    -4.6053  -4.5517  -4.5497  -4.5393  -4.5373  -4.5018  -4.4956  -4.4875
    -4.4469  -4.4461  -4.4148  -4.4118  -4.3780  -4.3589  -4.3528  -4.3481
    -4.3417  -4.3295  -4.3289  -4.2951  -4.2710  -4.2705  -4.2645  -4.2617
    -4.2363  -4.1941  -4.1836  -4.1659  -4.1642  -4.1620  -4.1542  -4.1495
    -4.1481  -4.1469  -4.1097  -4.0823  -4.0410  -4.0337  -4.0293  -4.0094
    -3.9945  -3.9863  -3.9719  -3.9701  -3.9683  -3.9652  -3.9319  -3.9158
    -3.9125  -3.9013  -3.8973  -3.7988  -3.7956  -3.7892  -3.7749  -3.7527
    -3.7416  -3.7272  -3.7018  -3.6965  -3.6705  -3.6693  -3.6502  -3.6478
    -3.6391  -3.6346  -3.5803  -3.5787  -3.5716  -3.5442  -3.5396  -3.5346
    -3.5325  -3.5297  -3.5067  -3.5036  -3.4710  -3.4671  -3.4513  -3.4417
    -3.4165  -3.4094  -3.3970  -3.3712  -3.3671  -3.3327  -3.3290  -3.2929
    -3.2858  -3.2851  -3.2719  -3.2687  -3.2659  -3.2646  -3.2340  -3.2164
    -3.1806  -3.1788  -3.1686  -3.1629  -3.1589  -3.1573  -3.1352  -3.1342
    -3.1165  -3.1135  -3.1105  -3.0872  -3.0849  -3.0784  -3.0760  -3.0721
    -3.0389  -3.0376  -3.0054  -2.9984  -2.9978  -2.9953  -2.9938  -2.9148
    -2.9112  -2.9054  -2.9028  -2.8997  -2.8994  -2.8975  -2.8960  -2.8928
    -2.8921  -2.8834  -2.8754  -2.8644  -2.8617  -2.8570  -2.8542  -2.8421
    -2.8412  -2.8011  -2.7998  -2.7978  -2.7942  -2.7918  -2.7760  -2.7739
    -2.7694  -2.7666  -2.7624  -2.7150  -2.7056  -2.7024  -2.6979  -2.6973
    -2.6941  -2.6665  -2.6132  -2.6080  -2.6071  -2.6016  -2.5976  -2.5908
    -2.5870  -2.5764  -2.5750  -2.5509  -2.5420  -2.5362  -2.5328  -2.5265
    -2.5262  -2.4937  -2.4899  -2.4837  -2.4781  -2.4761  -2.4745  -2.4437
    -2.4283  -2.4114  -2.3736  -2.3597  -2.3544  -2.3423  -2.3348  -2.3342
    -2.2880  -2.2842  -2.2651  -2.2595  -2.2462  -2.2327  -2.2282  -2.2219
    -2.2092  -2.2011  -2.1985  -2.1718  -2.1526  -2.1377  -2.1270  -2.1242
    -2.1224  -2.1156  -2.1142  -2.1053  -2.0995  -2.0951  -2.0928  -2.0875
    -2.0870  -2.0827  -2.0769  -2.0691  -2.0589  -2.0569  -2.0546  -2.0488
    -2.0468  -2.0332  -2.0263  -2.0207  -2.0123  -2.0114  -2.0032  -1.9839
    -1.9644  -1.9360  -1.9312  -1.8980  -1.8820  -1.8800  -1.8695  -1.8619
    -1.8466  -1.8420  -1.8343  -1.8316  -1.8298  -1.8280  -1.8248  -1.7983
    -1.7924  -1.7913  -1.7634  -1.7494  -1.7427  -1.7126  -1.6974  -1.6606
    -1.6564  -1.6441  -1.6260  -1.6214  -1.6155  -1.6048  -1.5955  -1.5846
    -1.5827  -1.5790  -1.5766  -1.5751  -1.5735  -1.5726  -1.5649  -1.5537
    -1.5468  -1.5304  -1.5245  -1.5086  -1.5015  -1.4822  -1.4782  -1.4759
    -1.4737  -1.4686  -1.4624  -1.4505  -1.4385  -1.4314  -1.4216  -1.4115
    -1.4030  -1.3951  -1.3775  -1.3671  -1.3634  -1.3585  -1.3454  -1.3229
    -1.3164  -1.3124  -1.3096  -1.3049  -1.2896  -1.2834  -1.2791  -1.2712
    -1.2640  -1.2585  -1.2535  -1.2476  -1.2470  -1.2368  -1.2331  -1.2237
    -1.2180  -1.2158  -1.2132  -1.2024  -1.2007  -1.1923  -1.1699  -1.1536
    -1.1480  -1.1464  -1.1445  -1.1402  -1.1308  -1.1052  -1.0882  -1.0846
    -1.0837  -1.0826  -1.0799  -1.0751  -1.0634  -1.0592  -1.0400  -1.0234
    -1.0161  -1.0150  -1.0069  -0.9946  -0.9923  -0.9834  -0.9554  -0.9461
    -0.9224  -0.9174  -0.8923  -0.8916  -0.8882  -0.8863  -0.8833  -0.8784
    -0.8764  -0.8752  -0.8708  -0.8674  -0.8407  -0.8387  -0.8222  -0.8186
    -0.8154  -0.8145  -0.8128  -0.7954  -0.7671  -0.5275  -0.5061  -0.4514
    -0.4282  -0.4120  -0.2528  -0.1895  -0.1868  -0.1401   0.1299   0.1409
     0.4621   0.4730   0.5578   0.5634   0.6003   0.6049   0.7449   0.7581
     0.8676   0.8733   0.9680   1.5561   1.5730   1.5769   1.6121   1.6207
     1.6659   1.6776   1.7417   1.7535   1.9468   1.9566   2.1919   2.2649
     2.2739   2.2837   2.6626   2.6709   2.7331   2.7395   2.7451   2.7471
     2.8930   2.8969   2.9488   3.0406   3.0420   3.2681   3.2754   3.4043
     3.4267   3.4386   3.7015   3.7073   3.8181   3.8354   3.8373   3.9109
     3.9203   4.0172   4.0250   4.2505   4.2636   4.3492   4.3543   4.4625
     4.4760   4.4961   4.5165   4.6620   5.2691   5.3007   5.3622   5.3987
     5.4080   5.5736   5.5844   5.6234   5.6599   5.6962   5.7035   5.7251
     5.7285   5.7427   5.7555   5.7961   6.0351   6.0614   6.0694   6.0844
     6.0869   6.0961   6.1084   6.1143   6.1500   6.1609   6.1773   6.1867

          k =-0.2500 0.2500 0.2500 (167588 PWs)   bands (ev):

   -19.7843  -7.7381  -6.8681  -6.3408  -6.3381  -5.9099  -5.5058  -5.4089
    -5.4066  -5.2123  -5.2105  -5.1036  -5.0928  -5.0155  -4.9941  -4.9193
    -4.8348  -4.8304  -4.7945  -4.7910  -4.6347  -4.6153  -4.6140  -4.6118
    -4.6053  -4.5517  -4.5497  -4.5393  -4.5373  -4.5018  -4.4956  -4.4875
    -4.4469  -4.4460  -4.4148  -4.4118  -4.3780  -4.3589  -4.3528  -4.3481
    -4.3417  -4.3295  -4.3289  -4.2951  -4.2710  -4.2705  -4.2645  -4.2617
    -4.2363  -4.1941  -4.1836  -4.1659  -4.1642  -4.1619  -4.1542  -4.1495
    -4.1481  -4.1469  -4.1097  -4.0823  -4.0410  -4.0337  -4.0293  -4.0094
    -3.9945  -3.9863  -3.9719  -3.9701  -3.9683  -3.9652  -3.9319  -3.9158
    -3.9125  -3.9013  -3.8973  -3.7988  -3.7956  -3.7892  -3.7749  -3.7527
    -3.7416  -3.7272  -3.7018  -3.6965  -3.6705  -3.6693  -3.6502  -3.6478
    -3.6391  -3.6346  -3.5803  -3.5787  -3.5716  -3.5442  -3.5396  -3.5346
    -3.5325  -3.5297  -3.5067  -3.5036  -3.4710  -3.4671  -3.4513  -3.4416
    -3.4165  -3.4094  -3.3970  -3.3712  -3.3671  -3.3327  -3.3290  -3.2929
    -3.2858  -3.2851  -3.2719  -3.2687  -3.2659  -3.2645  -3.2340  -3.2164
    -3.1806  -3.1788  -3.1686  -3.1629  -3.1589  -3.1573  -3.1352  -3.1342
    -3.1165  -3.1135  -3.1105  -3.0872  -3.0849  -3.0784  -3.0760  -3.0721
    -3.0389  -3.0376  -3.0054  -2.9984  -2.9978  -2.9953  -2.9938  -2.9148
    -2.9112  -2.9054  -2.9028  -2.8997  -2.8994  -2.8975  -2.8960  -2.8928
    -2.8921  -2.8835  -2.8754  -2.8644  -2.8617  -2.8570  -2.8542  -2.8421
    -2.8412  -2.8011  -2.7998  -2.7978  -2.7942  -2.7918  -2.7760  -2.7739
    -2.7694  -2.7666  -2.7624  -2.7150  -2.7056  -2.7024  -2.6979  -2.6973
    -2.6941  -2.6665  -2.6132  -2.6080  -2.6071  -2.6016  -2.5976  -2.5908
    -2.5870  -2.5764  -2.5750  -2.5509  -2.5420  -2.5362  -2.5328  -2.5265
    -2.5262  -2.4937  -2.4899  -2.4837  -2.4781  -2.4761  -2.4745  -2.4437
    -2.4283  -2.4114  -2.3736  -2.3597  -2.3544  -2.3423  -2.3348  -2.3342
    -2.2880  -2.2842  -2.2651  -2.2595  -2.2462  -2.2326  -2.2282  -2.2219
    -2.2092  -2.2011  -2.1985  -2.1718  -2.1526  -2.1377  -2.1270  -2.1242
    -2.1224  -2.1156  -2.1142  -2.1053  -2.0995  -2.0951  -2.0928  -2.0875
    -2.0870  -2.0827  -2.0769  -2.0691  -2.0589  -2.0569  -2.0546  -2.0488
    -2.0468  -2.0332  -2.0263  -2.0207  -2.0123  -2.0114  -2.0032  -1.9839
    -1.9644  -1.9360  -1.9312  -1.8980  -1.8820  -1.8800  -1.8695  -1.8619
    -1.8466  -1.8420  -1.8343  -1.8316  -1.8298  -1.8280  -1.8248  -1.7983
    -1.7924  -1.7913  -1.7634  -1.7494  -1.7427  -1.7126  -1.6974  -1.6606
    -1.6564  -1.6441  -1.6260  -1.6214  -1.6155  -1.6048  -1.5955  -1.5846
    -1.5827  -1.5790  -1.5766  -1.5751  -1.5735  -1.5726  -1.5649  -1.5537
    -1.5468  -1.5304  -1.5245  -1.5086  -1.5015  -1.4822  -1.4782  -1.4759
    -1.4737  -1.4686  -1.4624  -1.4505  -1.4385  -1.4314  -1.4216  -1.4115
    -1.4030  -1.3951  -1.3775  -1.3671  -1.3634  -1.3585  -1.3454  -1.3229
    -1.3164  -1.3124  -1.3096  -1.3049  -1.2896  -1.2834  -1.2791  -1.2712
    -1.2640  -1.2585  -1.2535  -1.2476  -1.2470  -1.2368  -1.2331  -1.2237
    -1.2180  -1.2158  -1.2132  -1.2024  -1.2007  -1.1923  -1.1699  -1.1536
    -1.1480  -1.1464  -1.1445  -1.1402  -1.1308  -1.1052  -1.0882  -1.0846
    -1.0837  -1.0826  -1.0799  -1.0751  -1.0634  -1.0592  -1.0400  -1.0234
    -1.0161  -1.0150  -1.0069  -0.9946  -0.9923  -0.9834  -0.9554  -0.9461
    -0.9224  -0.9173  -0.8923  -0.8916  -0.8882  -0.8863  -0.8833  -0.8784
    -0.8764  -0.8752  -0.8708  -0.8674  -0.8407  -0.8387  -0.8222  -0.8186
    -0.8154  -0.8145  -0.8128  -0.7953  -0.7671  -0.5275  -0.5061  -0.4514
    -0.4282  -0.4120  -0.2528  -0.1895  -0.1868  -0.1401   0.1299   0.1409
     0.4620   0.4730   0.5578   0.5634   0.6003   0.6049   0.7449   0.7581
     0.8676   0.8733   0.9679   1.5561   1.5730   1.5769   1.6121   1.6207
     1.6659   1.6776   1.7417   1.7535   1.9468   1.9566   2.1919   2.2649
     2.2739   2.2837   2.6626   2.6709   2.7331   2.7395   2.7451   2.7471
     2.8930   2.8969   2.9488   3.0406   3.0420   3.2682   3.2754   3.4043
     3.4267   3.4386   3.7015   3.7073   3.8181   3.8354   3.8373   3.9109
     3.9204   4.0172   4.0250   4.2505   4.2636   4.3492   4.3543   4.4625
     4.4760   4.4961   4.5165   4.6622   5.2651   5.3008   5.3423   5.3985
     5.4080   5.5735   5.5843   5.6251   5.6824   5.6983   5.7104   5.7109
     5.7418   5.7526   5.7736   5.7970   6.0351   6.0614   6.0697   6.0844
     6.0870   6.0960   6.1083   6.1146   6.1321   6.1727   6.1763   6.2759

     the Fermi energy is     0.8232 ev

!    total energy              =   -7425.27393990 Ry
     Harris-Foulkes estimate   =   -7425.27393992 Ry
     estimated scf accuracy    <          7.2E-09 Ry

     The total energy is the sum of the following terms:

     one-electron contribution =  -48915.18853738 Ry
     hartree contribution      =   25006.99166246 Ry
     xc contribution           =   -3604.27186250 Ry
     ewald contribution        =   20087.19728209 Ry
     smearing contrib. (-TS)   =      -0.00248456 Ry

     convergence has been achieved in  25 iterations

     Writing output data file 4052679.save

     init_run     :    121.39s CPU    130.49s WALL (       1 calls)
     electrons    :   6619.46s CPU   7133.93s WALL (       1 calls)

     Called by init_run:
     wfcinit      :     86.09s CPU     94.30s WALL (       1 calls)
     potinit      :      7.28s CPU      7.73s WALL (       1 calls)

     Called by electrons:
     c_bands      :   5003.08s CPU   5408.84s WALL (      26 calls)
     sum_band     :   1019.92s CPU   1108.24s WALL (      26 calls)
     v_of_rho     :    132.71s CPU    144.42s WALL (      26 calls)
     newd         :    479.56s CPU    486.16s WALL (      26 calls)
     mix_rho      :      3.72s CPU      4.19s WALL (      26 calls)
     vdW_energy   :     11.45s CPU     12.93s WALL (      26 calls)
     vdW_ffts     :     65.81s CPU     71.47s WALL (      52 calls)
     vdW_v        :     15.86s CPU     16.84s WALL (      26 calls)

     Called by c_bands:
     init_us_2    :     18.77s CPU     19.15s WALL (     318 calls)
     cegterg      :   4946.97s CPU   5351.77s WALL (     156 calls)

     Called by *egterg:
     h_psi        :   2229.34s CPU   2576.93s WALL (     752 calls)
     s_psi        :    339.53s CPU    341.87s WALL (     752 calls)
     g_psi        :      4.82s CPU      4.79s WALL (     590 calls)
     cdiaghg      :   1300.55s CPU   1304.28s WALL (     740 calls)

     Called by h_psi:
     add_vuspsi   :    341.68s CPU    344.34s WALL (     752 calls)

     General routines
     calbec       :    497.56s CPU    499.75s WALL (     908 calls)
     fft          :    146.83s CPU    156.57s WALL (    1716 calls)
     ffts         :      1.94s CPU      2.19s WALL (      52 calls)
     fftw         :   1531.64s CPU   1889.23s WALL (  419052 calls)
     interpolate  :      5.90s CPU      6.56s WALL (      52 calls)
     davcio       :      0.00s CPU      0.15s WALL (       6 calls)

     Parallel routines
     fft_scatter  :   1099.01s CPU   1368.87s WALL (  420820 calls)

     PWSCF        :     1h52m CPU        2h 1m WALL


   This run was terminated on:  11:19:50  24Aug2015            

=------------------------------------------------------------------------------=
   JOB DONE.
=------------------------------------------------------------------------------=
