Setting SGE environment for SCC

     Program PWSCF v.5.1.2 starts on  5Jul2015 at 16:43:45 

     This program is part of the open-source Quantum ESPRESSO suite
     for quantum simulation of materials; please cite
         "P. Giannozzi et al., J. Phys.:Condens. Matter 21 395502 (2009);
          URL http://www.quantum-espresso.org", 
     in publications or presentations arising from this work. More details at
     http://www.quantum-espresso.org/quote

     Parallel version (MPI), running on    32 processors
     R & G space division:  proc/nbgrp/npool/nimage =      32
     Reading input from hollow.H2.Au5859.d.2.3.phi.0.psi.0.in
Warning: card &IONS ignored
Warning: card / ignored
Warning: card &CELL ignored
Warning: card / ignored

     Current dimensions of program PWSCF are:
     Max number of different atomic species (ntypx) = 10
     Max number of k-points (npk) =  40000
     Max angular momentum in pseudopotentials (lmaxx) =  3

     IMPORTANT: XC functional enforced from input :
     Exchange-correlation      = VDW-DF ( 1  4  4  0 1 0)
     Any further DFT definition will be discarded
     Please, verify this is what you really want


     Subspace diagonalization in iterative solution of the eigenvalue problem:
     a serial algorithm will be used


     Parallelization info
     --------------------
     sticks:   dense  smooth     PW     G-vecs:    dense   smooth      PW
     Min         578     289     74               118518    41891    5486
     Max         579     290     75               118533    41932    5497
     Sum       18505    9265   2385              3792731  1341081  175711


     Title: 
     hollow.H2.Au5859.d.2.3.phi.0.psi.0                                         


     bravais-lattice index     =            8
     lattice parameter (alat)  =      24.1233  a.u.
     unit-cell volume          =   28076.2361 (a.u.)^3
     number of atoms/cell      =           75
     number of atomic types    =            3
     number of electrons       =       800.00
     number of Kohn-Sham states=          480
     kinetic-energy cutoff     =      50.0000  Ry
     charge density cutoff     =     400.0000  Ry
     convergence threshold     =      1.0E-08
     mixing beta               =       0.7000
     number of iterations used =            8  plain     mixing
     Exchange-correlation      = VDW-DF ( 1  4  4  0 1 0)

     celldm(1)=  24.123277  celldm(2)=   1.000000  celldm(3)=   2.000000
     celldm(4)=   0.000000  celldm(5)=   0.000000  celldm(6)=   0.000000

     crystal axes: (cart. coord. in units of alat)
               a(1) = (   1.000000   0.000000   0.000000 )  
               a(2) = (   0.000000   1.000000   0.000000 )  
               a(3) = (   0.000000   0.000000   2.000000 )  

     reciprocal axes: (cart. coord. in units 2 pi/alat)
               b(1) = (  1.000000  0.000000  0.000000 )  
               b(2) = (  0.000000  1.000000  0.000000 )  
               b(3) = (  0.000000  0.000000  0.500000 )  


     PseudoPot. # 1 for Au read from file:
     /home/scc/andrejb/qe/pseudo/Au.pbe-nd-van.UPF
     MD5 check sum: 458681b50f36d87ef23c61b04bba420a
     Pseudo is Ultrasoft + core correction, Zval = 11.0
     Generated by new atomic code, or converted to UPF format
     Using radial grid of  985 points,  3 beta functions with: 
                l(1) =   1
                l(2) =   2
                l(3) =   2
     Q(r) pseudized with  8 coefficients,  rinner =    1.100   1.100   1.100
                                                       1.100   1.100

     PseudoPot. # 2 for H  read from file:
     /home/scc/andrejb/qe/pseudo/H.pbe-van_ak.UPF
     MD5 check sum: 403db7282739603aa925980fa9b8608d
     Pseudo is Ultrasoft, Zval =  1.0
     Generated by new atomic code, or converted to UPF format
     Using radial grid of  615 points,  1 beta functions with: 
                l(1) =   0
     Q(r) pseudized with  8 coefficients,  rinner =    0.800

     PseudoPot. # 3 for O  read from file:
     /home/scc/andrejb/qe/pseudo/O.pbe-van_ak.UPF
     MD5 check sum: 4b8c549914a63cae506c6ff22b5af4fe
     Pseudo is Ultrasoft, Zval =  6.0
     Generated by new atomic code, or converted to UPF format
     Using radial grid of  737 points,  4 beta functions with: 
                l(1) =   0
                l(2) =   0
                l(3) =   1
                l(4) =   1
     Q(r) pseudized with  8 coefficients,  rinner =    0.800   0.800   0.800


     vdW kernel table read from file vdW_kernel_table
     MD5 check sum: 48e77a2e26edf626eeb0eaa751ad5cac

     atomic species   valence    mass     pseudopotential
        Au            11.00   196.96657     Au( 1.00)
        H              1.00     1.01000     H ( 1.00)
        O              6.00    16.00000     O ( 1.00)

     No symmetry found



   Cartesian axes

     site n.     atom                  positions (alat units)
         1           O   tau(   1) = (   0.1840006   0.1810976   0.9090153  )
         2           H   tau(   2) = (   0.1666051   0.1666105   0.8361597  )
         3           H   tau(   3) = (   0.1341739   0.1396194   0.9492059  )
         4           Au  tau(   4) = (   0.0000000   0.0000000   0.0000000  )
         5           Au  tau(   5) = (   0.3332217   0.0000000   0.0000000  )
         6           Au  tau(   6) = (   0.6664434   0.0000000   0.0000000  )
         7           Au  tau(   7) = (   0.1666109   0.1666109   0.0000000  )
         8           Au  tau(   8) = (   0.4998326   0.1666109   0.0000000  )
         9           Au  tau(   9) = (   0.8330542   0.1666109   0.0000000  )
        10           Au  tau(  10) = (   0.0000000   0.3332217   0.0000000  )
        11           Au  tau(  11) = (   0.3332217   0.3332217   0.0000000  )
        12           Au  tau(  12) = (   0.6664434   0.3332217   0.0000000  )
        13           Au  tau(  13) = (   0.1666109   0.4998326   0.0000000  )
        14           Au  tau(  14) = (   0.4998326   0.4998326   0.0000000  )
        15           Au  tau(  15) = (   0.8330542   0.4998326   0.0000000  )
        16           Au  tau(  16) = (   0.0000000   0.6664434   0.0000000  )
        17           Au  tau(  17) = (   0.3332217   0.6664434   0.0000000  )
        18           Au  tau(  18) = (   0.6664434   0.6664434   0.0000000  )
        19           Au  tau(  19) = (   0.1666109   0.8330542   0.0000000  )
        20           Au  tau(  20) = (   0.4998326   0.8330542   0.0000000  )
        21           Au  tau(  21) = (   0.8330542   0.8330542   0.0000000  )
        22           Au  tau(  22) = (   0.1666109   0.0000000   0.1666109  )
        23           Au  tau(  23) = (   0.4998326   0.0000000   0.1666109  )
        24           Au  tau(  24) = (   0.8330542   0.0000000   0.1666109  )
        25           Au  tau(  25) = (   0.0000000   0.1666109   0.1666109  )
        26           Au  tau(  26) = (   0.3332217   0.1666109   0.1666109  )
        27           Au  tau(  27) = (   0.6664434   0.1666109   0.1666109  )
        28           Au  tau(  28) = (   0.1666109   0.3332217   0.1666109  )
        29           Au  tau(  29) = (   0.4998326   0.3332217   0.1666109  )
        30           Au  tau(  30) = (   0.8330542   0.3332217   0.1666109  )
        31           Au  tau(  31) = (   0.0000000   0.4998326   0.1666109  )
        32           Au  tau(  32) = (   0.3332217   0.4998326   0.1666109  )
        33           Au  tau(  33) = (   0.6664434   0.4998326   0.1666109  )
        34           Au  tau(  34) = (   0.1666109   0.6664434   0.1666109  )
        35           Au  tau(  35) = (   0.4998326   0.6664434   0.1666109  )
        36           Au  tau(  36) = (   0.8330542   0.6664434   0.1666109  )
        37           Au  tau(  37) = (   0.0000000   0.8330542   0.1666109  )
        38           Au  tau(  38) = (   0.3332217   0.8330542   0.1666109  )
        39           Au  tau(  39) = (   0.6664434   0.8330542   0.1666109  )
        40           Au  tau(  40) = (  -0.0000182  -0.0000182   0.3335478  )
        41           Au  tau(  41) = (   0.3332215  -0.0000181   0.3335473  )
        42           Au  tau(  42) = (   0.6664447  -0.0000183   0.3335481  )
        43           Au  tau(  43) = (  -0.0000181   0.3332215   0.3335473  )
        44           Au  tau(  44) = (   0.3332215   0.3332215   0.3335468  )
        45           Au  tau(  45) = (   0.6664445   0.3332215   0.3335477  )
        46           Au  tau(  46) = (  -0.0000183   0.6664447   0.3335481  )
        47           Au  tau(  47) = (   0.3332215   0.6664445   0.3335477  )
        48           Au  tau(  48) = (   0.6664446   0.6664446   0.3335486  )
        49           Au  tau(  49) = (   0.1666097   0.1666097   0.3335483  )
        50           Au  tau(  50) = (   0.4998320   0.1666098   0.3335477  )
        51           Au  tau(  51) = (   0.8330732   0.1666096   0.3335480  )
        52           Au  tau(  52) = (   0.1666098   0.4998320   0.3335477  )
        53           Au  tau(  53) = (   0.4998322   0.4998322   0.3335470  )
        54           Au  tau(  54) = (   0.8330731   0.4998322   0.3335474  )
        55           Au  tau(  55) = (   0.1666096   0.8330732   0.3335480  )
        56           Au  tau(  56) = (   0.4998322   0.8330731   0.3335474  )
        57           Au  tau(  57) = (   0.8330731   0.8330731   0.3335478  )
        58           Au  tau(  58) = (   0.1666104  -0.0000111   0.4993095  )
        59           Au  tau(  59) = (   0.4998323  -0.0000112   0.4993099  )
        60           Au  tau(  60) = (   0.8330660  -0.0000111   0.4993009  )
        61           Au  tau(  61) = (  -0.0000111   0.1666104   0.4993095  )
        62           Au  tau(  62) = (   0.3332213   0.1666106   0.4993185  )
        63           Au  tau(  63) = (   0.6664437   0.1666106   0.4993187  )
        64           Au  tau(  64) = (   0.1666106   0.3332213   0.4993185  )
        65           Au  tau(  65) = (   0.4998324   0.3332216   0.4993185  )
        66           Au  tau(  66) = (   0.8330658   0.3332215   0.4993102  )
        67           Au  tau(  67) = (  -0.0000112   0.4998323   0.4993099  )
        68           Au  tau(  68) = (   0.3332216   0.4998324   0.4993185  )
        69           Au  tau(  69) = (   0.6664437   0.4998325   0.4993187  )
        70           Au  tau(  70) = (   0.1666106   0.6664437   0.4993187  )
        71           Au  tau(  71) = (   0.4998325   0.6664437   0.4993187  )
        72           Au  tau(  72) = (   0.8330658   0.6664438   0.4993102  )
        73           Au  tau(  73) = (  -0.0000111   0.8330660   0.4993009  )
        74           Au  tau(  74) = (   0.3332215   0.8330658   0.4993102  )
        75           Au  tau(  75) = (   0.6664438   0.8330658   0.4993102  )

     number of k points=     6  Marzari-Vanderbilt smearing, width (Ry)=  0.0200
                       cart. coord. in units 2pi/alat
        k(    1) = (   0.2500000   0.2500000   0.0833333), wk =   0.3333333
        k(    2) = (   0.2500000   0.2500000  -0.2500000), wk =   0.3333333
        k(    3) = (  -0.2500000  -0.2500000   0.0833333), wk =   0.3333333
        k(    4) = (  -0.2500000   0.2500000  -0.0833333), wk =   0.3333333
        k(    5) = (   0.2500000  -0.2500000  -0.0833333), wk =   0.3333333
        k(    6) = (  -0.2500000   0.2500000   0.2500000), wk =   0.3333333

     Dense  grid:  3792731 G-vectors     FFT dimensions: ( 160, 160, 320)

     Smooth grid:  1341081 G-vectors     FFT dimensions: ( 120, 120, 225)

     Largest allocated arrays     est. size (Mb)     dimensions
        Kohn-Sham Wavefunctions        38.58 Mb     (    5267,  480)
        NL pseudopotentials            76.03 Mb     (    5267,  946)
        Each V/rho on FFT grid          3.91 Mb     (  256000)
        Each G-vector array             0.90 Mb     (  118520)
        G-vector shells                 0.08 Mb     (   10286)
     Largest temporary arrays     est. size (Mb)     dimensions
        Auxiliary wavefunctions       154.31 Mb     (    5267, 1920)
        Each subspace H/S matrix       56.25 Mb     (    1920, 1920)
        Each <psi_i|beta_j> matrix      6.93 Mb     (     946,  480)
        Arrays for rho mixing          31.25 Mb     (  256000,    8)

     Initial potential from superposition of free atoms
     Check: negative starting charge=   -1.944812

     starting charge  799.16392, renormalised to  800.00000

     negative rho (up, down):  1.947E+00 0.000E+00


     ************************************************************************
     *
     * You are using vdW-DF for exchange-correlation in this calculation.
     * Please cite the following three references that made this development
     * possible:
     *
     *   M. Dion, H. Rydberg, E. Schroder, D. C. Langreth, and
     *   B. I. Lundqvist, Phys. Rev. Lett. 92, 246401 (2004).
     *
     *   T. Thonhauser, V. R. Cooper, S. Li, A. Puzder, P. Hyldgaard, and
     *   D. C. Langreth, Phys. Rev. B 76, 125112 (2007).
     *
     *   G. Roman-Perez and J. M. Soler, Phys. Rev. Lett. 103, 096102 (2009).
     *
     *
     * If you are using vdW-DF2, please also cite:
     *
     *   K. Lee, E. D. Murray, L. Kong, B. I. Lundqvist, and
     *   D. C. Langreth, Phys. Rev. B 82, 081101(R) (2010).
     *
     *
     * If you are calculating the stress with vdW-DF, please also cite:
     *
     *   R. Sabatini, E. Kucukbenli, B. Kolb, T. Thonhauser, and
     *   S. de Gironcoli, J. Phys.: Condens. Matter 24, 424209 (2012).
     *
     ************************************************************************

     Carrying out vdW-DF run using the following parameters:

     Nqs =      20    Nr_points =    1024   r_max =   100.000
     q_mesh =
               0.00001000     0.04494208     0.09755937     0.15916263
               0.23128650     0.31572767     0.41458969     0.53033537
               0.66584808     0.82450364     1.01025438     1.22772762
               1.48234092     1.78043706     2.12944203     2.53805004
               3.01644009     3.57652955     4.23227104     5.00000000

     Gradients computed in reciprocal space

     ************************************************************************


     Starting wfc are  654 randomized atomic wfcs

     total cpu time spent up to now is      127.4 secs

     Self-consistent Calculation

     iteration #  1     ecut=    50.00 Ry     beta=0.70
     Davidson diagonalization with overlap
     ethr =  1.00E-02,  avg # of iterations =  3.0

     Threshold (ethr) on eigenvalues was too large:
     Diagonalizing with lowered threshold

     Davidson diagonalization with overlap
     ethr =  4.29E-04,  avg # of iterations =  2.5

     negative rho (up, down):  1.948E+00 0.000E+00

     total cpu time spent up to now is      586.7 secs

     total energy              =   -7422.99787472 Ry
     Harris-Foulkes estimate   =   -7426.08609600 Ry
     estimated scf accuracy    <       3.80932699 Ry

     iteration #  2     ecut=    50.00 Ry     beta=0.70
     Davidson diagonalization with overlap
     ethr =  4.76E-04,  avg # of iterations = 11.5

     negative rho (up, down):  1.942E+00 0.000E+00

     total cpu time spent up to now is     1391.0 secs

     total energy              =   -7414.85879829 Ry
     Harris-Foulkes estimate   =   -7432.74446896 Ry
     estimated scf accuracy    <      93.69746035 Ry

     iteration #  3     ecut=    50.00 Ry     beta=0.70
     Davidson diagonalization with overlap
     ethr =  4.76E-04,  avg # of iterations =  6.0

     negative rho (up, down):  1.954E+00 0.000E+00

     total cpu time spent up to now is     1879.1 secs

     total energy              =   -7424.01438022 Ry
     Harris-Foulkes estimate   =   -7425.93477821 Ry
     estimated scf accuracy    <       8.33110559 Ry

     iteration #  4     ecut=    50.00 Ry     beta=0.70
     Davidson diagonalization with overlap
     ethr =  4.76E-04,  avg # of iterations =  6.7

     negative rho (up, down):  1.955E+00 0.000E+00

     total cpu time spent up to now is     2173.7 secs

     total energy              =   -7424.75717105 Ry
     Harris-Foulkes estimate   =   -7425.69558756 Ry
     estimated scf accuracy    <       5.35256967 Ry

     iteration #  5     ecut=    50.00 Ry     beta=0.70
     Davidson diagonalization with overlap
     ethr =  4.76E-04,  avg # of iterations =  6.5

     negative rho (up, down):  1.964E+00 0.000E+00

     total cpu time spent up to now is     2468.2 secs

     total energy              =   -7425.09503119 Ry
     Harris-Foulkes estimate   =   -7425.57270732 Ry
     estimated scf accuracy    <       3.69354257 Ry

     iteration #  6     ecut=    50.00 Ry     beta=0.70
     Davidson diagonalization with overlap
     ethr =  4.62E-04,  avg # of iterations =  2.5

     negative rho (up, down):  1.969E+00 0.000E+00

     total cpu time spent up to now is     2701.7 secs

     total energy              =   -7425.28612099 Ry
     Harris-Foulkes estimate   =   -7425.32114838 Ry
     estimated scf accuracy    <       0.10827011 Ry

     iteration #  7     ecut=    50.00 Ry     beta=0.70
     Davidson diagonalization with overlap
     ethr =  1.35E-05,  avg # of iterations =  8.2

     negative rho (up, down):  1.971E+00 0.000E+00

     total cpu time spent up to now is     3073.9 secs

     total energy              =   -7425.27560691 Ry
     Harris-Foulkes estimate   =   -7425.32483040 Ry
     estimated scf accuracy    <       0.26561034 Ry

     iteration #  8     ecut=    50.00 Ry     beta=0.70
     Davidson diagonalization with overlap
     ethr =  1.35E-05,  avg # of iterations =  3.3

     negative rho (up, down):  1.972E+00 0.000E+00

     total cpu time spent up to now is     3331.2 secs

     total energy              =   -7425.28930932 Ry
     Harris-Foulkes estimate   =   -7425.30273528 Ry
     estimated scf accuracy    <       0.04805970 Ry

     iteration #  9     ecut=    50.00 Ry     beta=0.70
     Davidson diagonalization with overlap
     ethr =  6.01E-06,  avg # of iterations =  7.5

     negative rho (up, down):  1.972E+00 0.000E+00

     total cpu time spent up to now is     3637.8 secs

     total energy              =   -7425.28698575 Ry
     Harris-Foulkes estimate   =   -7425.29663123 Ry
     estimated scf accuracy    <       0.03428194 Ry

     iteration # 10     ecut=    50.00 Ry     beta=0.70
     Davidson diagonalization with overlap
     ethr =  4.29E-06,  avg # of iterations =  5.2

     negative rho (up, down):  1.974E+00 0.000E+00

     total cpu time spent up to now is     3916.6 secs

     total energy              =   -7425.28805583 Ry
     Harris-Foulkes estimate   =   -7425.29124971 Ry
     estimated scf accuracy    <       0.01020616 Ry

     iteration # 11     ecut=    50.00 Ry     beta=0.70
     Davidson diagonalization with overlap
     ethr =  1.28E-06,  avg # of iterations =  6.2

     negative rho (up, down):  1.974E+00 0.000E+00

     total cpu time spent up to now is     4200.3 secs

     total energy              =   -7425.28804715 Ry
     Harris-Foulkes estimate   =   -7425.28931248 Ry
     estimated scf accuracy    <       0.00535299 Ry

     iteration # 12     ecut=    50.00 Ry     beta=0.70
     Davidson diagonalization with overlap
     ethr =  6.69E-07,  avg # of iterations =  1.0

     negative rho (up, down):  1.975E+00 0.000E+00

     total cpu time spent up to now is     4413.8 secs

     total energy              =   -7425.28697974 Ry
     Harris-Foulkes estimate   =   -7425.28845224 Ry
     estimated scf accuracy    <       0.00208500 Ry

     iteration # 13     ecut=    50.00 Ry     beta=0.70
     Davidson diagonalization with overlap
     ethr =  2.61E-07,  avg # of iterations =  7.8

     negative rho (up, down):  1.974E+00 0.000E+00

     total cpu time spent up to now is     4730.7 secs

     total energy              =   -7425.28706333 Ry
     Harris-Foulkes estimate   =   -7425.28761068 Ry
     estimated scf accuracy    <       0.00169600 Ry

     iteration # 14     ecut=    50.00 Ry     beta=0.70
     Davidson diagonalization with overlap
     ethr =  2.12E-07,  avg # of iterations =  2.0

     negative rho (up, down):  1.974E+00 0.000E+00

     total cpu time spent up to now is     4964.0 secs

     total energy              =   -7425.28724735 Ry
     Harris-Foulkes estimate   =   -7425.28747856 Ry
     estimated scf accuracy    <       0.00098202 Ry

     iteration # 15     ecut=    50.00 Ry     beta=0.70
     Davidson diagonalization with overlap
     ethr =  1.23E-07,  avg # of iterations =  2.0

     negative rho (up, down):  1.974E+00 0.000E+00

     total cpu time spent up to now is     5190.3 secs

     total energy              =   -7425.28732940 Ry
     Harris-Foulkes estimate   =   -7425.28744427 Ry
     estimated scf accuracy    <       0.00050796 Ry

     iteration # 16     ecut=    50.00 Ry     beta=0.70
     Davidson diagonalization with overlap
     ethr =  6.35E-08,  avg # of iterations =  2.0

     negative rho (up, down):  1.974E+00 0.000E+00

     total cpu time spent up to now is     5414.3 secs

     total energy              =   -7425.28735991 Ry
     Harris-Foulkes estimate   =   -7425.28740977 Ry
     estimated scf accuracy    <       0.00026878 Ry

     iteration # 17     ecut=    50.00 Ry     beta=0.70
     Davidson diagonalization with overlap
     ethr =  3.36E-08,  avg # of iterations =  1.0

     negative rho (up, down):  1.974E+00 0.000E+00

     total cpu time spent up to now is     5624.2 secs

     total energy              =   -7425.28737972 Ry
     Harris-Foulkes estimate   =   -7425.28740455 Ry
     estimated scf accuracy    <       0.00017632 Ry

     iteration # 18     ecut=    50.00 Ry     beta=0.70
     Davidson diagonalization with overlap
     ethr =  2.20E-08,  avg # of iterations =  1.0

     negative rho (up, down):  1.974E+00 0.000E+00

     total cpu time spent up to now is     5835.0 secs

     total energy              =   -7425.28739172 Ry
     Harris-Foulkes estimate   =   -7425.28739366 Ry
     estimated scf accuracy    <       0.00000746 Ry

     iteration # 19     ecut=    50.00 Ry     beta=0.70
     Davidson diagonalization with overlap
     ethr =  9.32E-10,  avg # of iterations =  3.0

     negative rho (up, down):  1.974E+00 0.000E+00

     total cpu time spent up to now is     6107.0 secs

     total energy              =   -7425.28739286 Ry
     Harris-Foulkes estimate   =   -7425.28739377 Ry
     estimated scf accuracy    <       0.00000278 Ry

     iteration # 20     ecut=    50.00 Ry     beta=0.70
     Davidson diagonalization with overlap
     ethr =  3.47E-10,  avg # of iterations =  2.0

     negative rho (up, down):  1.974E+00 0.000E+00

     total cpu time spent up to now is     6350.7 secs

     total energy              =   -7425.28739330 Ry
     Harris-Foulkes estimate   =   -7425.28739373 Ry
     estimated scf accuracy    <       0.00000224 Ry

     iteration # 21     ecut=    50.00 Ry     beta=0.70
     Davidson diagonalization with overlap
     ethr =  2.80E-10,  avg # of iterations =  2.0

     negative rho (up, down):  1.974E+00 0.000E+00

     total cpu time spent up to now is     6587.6 secs

     total energy              =   -7425.28739357 Ry
     Harris-Foulkes estimate   =   -7425.28739378 Ry
     estimated scf accuracy    <       0.00000135 Ry

     iteration # 22     ecut=    50.00 Ry     beta=0.70
     Davidson diagonalization with overlap
     ethr =  1.69E-10,  avg # of iterations =  2.0

     negative rho (up, down):  1.974E+00 0.000E+00

     total cpu time spent up to now is     6814.4 secs

     total energy              =   -7425.28739370 Ry
     Harris-Foulkes estimate   =   -7425.28739381 Ry
     estimated scf accuracy    <       0.00000056 Ry

     iteration # 23     ecut=    50.00 Ry     beta=0.70
     Davidson diagonalization with overlap
     ethr =  7.04E-11,  avg # of iterations =  3.0

     negative rho (up, down):  1.974E+00 0.000E+00

     total cpu time spent up to now is     7056.6 secs

     total energy              =   -7425.28739379 Ry
     Harris-Foulkes estimate   =   -7425.28739379 Ry
     estimated scf accuracy    <       0.00000007 Ry

     iteration # 24     ecut=    50.00 Ry     beta=0.70
     Davidson diagonalization with overlap
     ethr =  9.35E-12,  avg # of iterations =  3.0

     negative rho (up, down):  1.974E+00 0.000E+00

     total cpu time spent up to now is     7336.6 secs

     total energy              =   -7425.28739381 Ry
     Harris-Foulkes estimate   =   -7425.28739383 Ry
     estimated scf accuracy    <       0.00000017 Ry

     iteration # 25     ecut=    50.00 Ry     beta=0.70
     Davidson diagonalization with overlap
     ethr =  9.35E-12,  avg # of iterations =  3.0

     negative rho (up, down):  1.974E+00 0.000E+00

     total cpu time spent up to now is     7585.5 secs

     total energy              =   -7425.28739384 Ry
     Harris-Foulkes estimate   =   -7425.28739384 Ry
     estimated scf accuracy    <       0.00000005 Ry

     iteration # 26     ecut=    50.00 Ry     beta=0.70
     Davidson diagonalization with overlap
     ethr =  6.13E-12,  avg # of iterations =  2.0

     negative rho (up, down):  1.974E+00 0.000E+00

     total cpu time spent up to now is     7815.1 secs

     total energy              =   -7425.28739385 Ry
     Harris-Foulkes estimate   =   -7425.28739385 Ry
     estimated scf accuracy    <       0.00000003 Ry

     iteration # 27     ecut=    50.00 Ry     beta=0.70
     Davidson diagonalization with overlap
     ethr =  3.57E-12,  avg # of iterations =  1.5

     negative rho (up, down):  1.974E+00 0.000E+00

     total cpu time spent up to now is     8038.1 secs

     total energy              =   -7425.28739386 Ry
     Harris-Foulkes estimate   =   -7425.28739386 Ry
     estimated scf accuracy    <       0.00000004 Ry

     iteration # 28     ecut=    50.00 Ry     beta=0.70
     Davidson diagonalization with overlap
     ethr =  3.57E-12,  avg # of iterations =  1.0

     negative rho (up, down):  1.974E+00 0.000E+00

     total cpu time spent up to now is     8250.0 secs

     End of self-consistent calculation

          k = 0.2500 0.2500 0.0833 (167653 PWs)   bands (ev):

   -19.2490  -7.0645  -6.8694  -6.3409  -6.3405  -5.9111  -5.5021  -5.4090
    -5.4086  -5.2129  -5.2128  -5.0951  -5.0945  -5.0164  -4.9934  -4.9204
    -4.8356  -4.8318  -4.7929  -4.7928  -4.6319  -4.6154  -4.6142  -4.6139
    -4.6069  -4.5513  -4.5512  -4.5394  -4.5392  -4.5024  -4.4897  -4.4893
    -4.4476  -4.4475  -4.4141  -4.4128  -4.3609  -4.3606  -4.3497  -4.3489
    -4.3434  -4.3303  -4.3303  -4.2890  -4.2709  -4.2709  -4.2639  -4.2637
    -4.2314  -4.1818  -4.1667  -4.1665  -4.1627  -4.1625  -4.1549  -4.1492
    -4.1488  -4.1487  -4.0837  -4.0832  -4.0339  -4.0334  -4.0212  -3.9952
    -3.9951  -3.9753  -3.9728  -3.9723  -3.9678  -3.9649  -3.9160  -3.9160
    -3.9030  -3.9028  -3.7976  -3.7973  -3.7915  -3.7911  -3.7540  -3.7448
    -3.7304  -3.7007  -3.7006  -3.6721  -3.6718  -3.6502  -3.6500  -3.6365
    -3.6361  -3.5816  -3.5814  -3.5631  -3.5472  -3.5359  -3.5345  -3.5344
    -3.5328  -3.5058  -3.5057  -3.4694  -3.4694  -3.4468  -3.4465  -3.4137
    -3.4134  -3.3952  -3.3679  -3.3678  -3.3305  -3.3303  -3.2950  -3.2875
    -3.2868  -3.2732  -3.2725  -3.2710  -3.2675  -3.2675  -3.2289  -3.2186
    -3.1780  -3.1779  -3.1701  -3.1605  -3.1599  -3.1584  -3.1341  -3.1340
    -3.1128  -3.1122  -3.1120  -3.0852  -3.0852  -3.0776  -3.0748  -3.0747
    -3.0386  -3.0344  -2.9991  -2.9988  -2.9980  -2.9951  -2.9950  -2.9160
    -2.9060  -2.9015  -2.9013  -2.8999  -2.8997  -2.8948  -2.8948  -2.8946
    -2.8944  -2.8849  -2.8770  -2.8599  -2.8573  -2.8567  -2.8563  -2.8417
    -2.8371  -2.7989  -2.7983  -2.7980  -2.7940  -2.7936  -2.7755  -2.7754
    -2.7665  -2.7664  -2.7643  -2.7046  -2.7045  -2.6992  -2.6992  -2.6941
    -2.6939  -2.6658  -2.6069  -2.6055  -2.6053  -2.6034  -2.5921  -2.5898
    -2.5850  -2.5740  -2.5739  -2.5371  -2.5365  -2.5280  -2.5275  -2.5271
    -2.5267  -2.4873  -2.4870  -2.4772  -2.4772  -2.4757  -2.4755  -2.4336
    -2.4176  -2.4121  -2.3588  -2.3586  -2.3400  -2.3383  -2.3332  -2.3331
    -2.2845  -2.2839  -2.2608  -2.2442  -2.2301  -2.2294  -2.2292  -2.2072
    -2.2071  -2.1974  -2.1809  -2.1399  -2.1396  -2.1257  -2.1255  -2.1252
    -2.1143  -2.1141  -2.0986  -2.0986  -2.0983  -2.0942  -2.0893  -2.0888
    -2.0886  -2.0766  -2.0763  -2.0586  -2.0584  -2.0563  -2.0502  -2.0473
    -2.0471  -2.0233  -2.0231  -2.0119  -2.0098  -2.0054  -2.0049  -1.9667
    -1.9329  -1.9326  -1.8972  -1.8799  -1.8798  -1.8691  -1.8686  -1.8455
    -1.8451  -1.8306  -1.8302  -1.8288  -1.8288  -1.8258  -1.8252  -1.7931
    -1.7931  -1.7928  -1.7468  -1.7465  -1.7067  -1.7065  -1.6594  -1.6592
    -1.6470  -1.6245  -1.6193  -1.6167  -1.6003  -1.5984  -1.5812  -1.5808
    -1.5761  -1.5757  -1.5742  -1.5741  -1.5734  -1.5710  -1.5508  -1.5508
    -1.5403  -1.5229  -1.5040  -1.5039  -1.4774  -1.4773  -1.4746  -1.4742
    -1.4711  -1.4684  -1.4466  -1.4462  -1.4317  -1.4309  -1.4185  -1.4082
    -1.3946  -1.3943  -1.3635  -1.3632  -1.3553  -1.3552  -1.3199  -1.3195
    -1.3114  -1.3111  -1.3025  -1.3022  -1.2808  -1.2806  -1.2687  -1.2620
    -1.2618  -1.2512  -1.2484  -1.2483  -1.2480  -1.2475  -1.2334  -1.2230
    -1.2222  -1.2150  -1.2148  -1.2028  -1.1981  -1.1980  -1.1913  -1.1520
    -1.1498  -1.1449  -1.1427  -1.1421  -1.1412  -1.1026  -1.0861  -1.0854
    -1.0851  -1.0850  -1.0806  -1.0803  -1.0754  -1.0626  -1.0602  -1.0237
    -1.0234  -1.0164  -1.0164  -0.9934  -0.9933  -0.9835  -0.9537  -0.9460
    -0.9187  -0.9184  -0.8905  -0.8905  -0.8879  -0.8867  -0.8857  -0.8818
    -0.8786  -0.8764  -0.8718  -0.8716  -0.8397  -0.8395  -0.8218  -0.8209
    -0.8160  -0.8157  -0.8143  -0.8143  -0.7954  -0.5189  -0.5094  -0.4543
    -0.4525  -0.4141  -0.2531  -0.1882  -0.1879  -0.1570   0.1311   0.1311
     0.4604   0.4621   0.5601   0.5601   0.6011   0.6019   0.7447   0.7448
     0.8687   0.8706   0.9563   1.5562   1.5741   1.5750   1.6138   1.6197
     1.6606   1.6660   1.7443   1.7446   1.9519   1.9520   2.1853   2.2660
     2.2680   2.2828   2.6606   2.6655   2.7375   2.7383   2.7444   2.7449
     2.8961   2.8970   2.9406   3.0396   3.0403   3.2717   3.2744   3.4066
     3.4338   3.4340   3.7048   3.7050   3.8174   3.8371   3.8371   3.8826
     3.9181   4.0237   4.0248   4.2608   4.2618   4.3458   4.3503   4.4739
     4.4777   4.4930   4.5003   4.6027   4.7815   5.2972   5.3014   5.4045
     5.4070   5.4527   5.5855   5.5858   5.6236   5.6851   5.6934   5.7032
     5.7093   5.7545   5.7547   5.7979   5.9353   6.0301   6.0429   6.0676
     6.0827   6.0934   6.0972   6.1062   6.1067   6.1205   6.1227   6.1745

          k = 0.2500 0.2500-0.2500 (167588 PWs)   bands (ev):

   -19.2490  -7.0645  -6.8694  -6.3409  -6.3405  -5.9111  -5.5021  -5.4090
    -5.4086  -5.2129  -5.2128  -5.0951  -5.0945  -5.0164  -4.9934  -4.9204
    -4.8356  -4.8318  -4.7929  -4.7928  -4.6319  -4.6154  -4.6142  -4.6139
    -4.6070  -4.5513  -4.5512  -4.5394  -4.5392  -4.5024  -4.4897  -4.4893
    -4.4476  -4.4475  -4.4141  -4.4128  -4.3609  -4.3606  -4.3497  -4.3489
    -4.3434  -4.3303  -4.3303  -4.2890  -4.2709  -4.2709  -4.2639  -4.2637
    -4.2314  -4.1818  -4.1667  -4.1665  -4.1626  -4.1624  -4.1549  -4.1492
    -4.1488  -4.1487  -4.0837  -4.0832  -4.0339  -4.0334  -4.0212  -3.9952
    -3.9951  -3.9753  -3.9728  -3.9723  -3.9678  -3.9649  -3.9160  -3.9160
    -3.9030  -3.9028  -3.7976  -3.7973  -3.7915  -3.7911  -3.7540  -3.7448
    -3.7304  -3.7007  -3.7006  -3.6721  -3.6718  -3.6502  -3.6500  -3.6365
    -3.6361  -3.5816  -3.5814  -3.5631  -3.5472  -3.5359  -3.5345  -3.5344
    -3.5328  -3.5058  -3.5057  -3.4694  -3.4694  -3.4468  -3.4465  -3.4137
    -3.4134  -3.3952  -3.3679  -3.3678  -3.3305  -3.3303  -3.2950  -3.2875
    -3.2868  -3.2732  -3.2725  -3.2710  -3.2675  -3.2675  -3.2289  -3.2186
    -3.1780  -3.1779  -3.1701  -3.1605  -3.1599  -3.1584  -3.1341  -3.1340
    -3.1128  -3.1122  -3.1120  -3.0852  -3.0851  -3.0776  -3.0748  -3.0747
    -3.0386  -3.0344  -2.9991  -2.9988  -2.9980  -2.9951  -2.9950  -2.9160
    -2.9060  -2.9015  -2.9013  -2.9000  -2.8997  -2.8948  -2.8948  -2.8945
    -2.8944  -2.8849  -2.8770  -2.8599  -2.8573  -2.8567  -2.8563  -2.8417
    -2.8371  -2.7989  -2.7983  -2.7980  -2.7940  -2.7936  -2.7755  -2.7754
    -2.7665  -2.7664  -2.7643  -2.7046  -2.7045  -2.6992  -2.6992  -2.6941
    -2.6939  -2.6658  -2.6069  -2.6055  -2.6053  -2.6034  -2.5921  -2.5898
    -2.5850  -2.5740  -2.5739  -2.5371  -2.5365  -2.5280  -2.5275  -2.5271
    -2.5267  -2.4873  -2.4870  -2.4772  -2.4772  -2.4757  -2.4755  -2.4336
    -2.4176  -2.4121  -2.3588  -2.3586  -2.3400  -2.3384  -2.3332  -2.3331
    -2.2845  -2.2839  -2.2608  -2.2442  -2.2301  -2.2294  -2.2292  -2.2072
    -2.2071  -2.1974  -2.1809  -2.1399  -2.1396  -2.1257  -2.1255  -2.1252
    -2.1143  -2.1141  -2.0986  -2.0986  -2.0983  -2.0942  -2.0893  -2.0888
    -2.0886  -2.0766  -2.0763  -2.0586  -2.0584  -2.0563  -2.0502  -2.0473
    -2.0471  -2.0233  -2.0231  -2.0119  -2.0098  -2.0054  -2.0049  -1.9668
    -1.9329  -1.9326  -1.8972  -1.8799  -1.8798  -1.8691  -1.8686  -1.8455
    -1.8450  -1.8306  -1.8302  -1.8288  -1.8287  -1.8258  -1.8252  -1.7931
    -1.7931  -1.7928  -1.7468  -1.7465  -1.7067  -1.7065  -1.6594  -1.6592
    -1.6470  -1.6245  -1.6193  -1.6167  -1.6003  -1.5985  -1.5812  -1.5808
    -1.5761  -1.5757  -1.5742  -1.5741  -1.5734  -1.5710  -1.5508  -1.5508
    -1.5403  -1.5229  -1.5040  -1.5039  -1.4774  -1.4773  -1.4745  -1.4742
    -1.4711  -1.4684  -1.4466  -1.4462  -1.4317  -1.4309  -1.4185  -1.4082
    -1.3946  -1.3943  -1.3635  -1.3632  -1.3553  -1.3552  -1.3199  -1.3195
    -1.3114  -1.3111  -1.3025  -1.3022  -1.2808  -1.2806  -1.2687  -1.2620
    -1.2618  -1.2512  -1.2484  -1.2483  -1.2480  -1.2475  -1.2334  -1.2230
    -1.2222  -1.2149  -1.2148  -1.2028  -1.1981  -1.1980  -1.1913  -1.1520
    -1.1498  -1.1449  -1.1427  -1.1422  -1.1412  -1.1026  -1.0861  -1.0854
    -1.0851  -1.0850  -1.0806  -1.0803  -1.0754  -1.0626  -1.0602  -1.0237
    -1.0234  -1.0164  -1.0164  -0.9934  -0.9933  -0.9835  -0.9537  -0.9460
    -0.9187  -0.9184  -0.8905  -0.8905  -0.8879  -0.8867  -0.8857  -0.8818
    -0.8786  -0.8764  -0.8718  -0.8716  -0.8397  -0.8395  -0.8218  -0.8209
    -0.8160  -0.8157  -0.8143  -0.8143  -0.7954  -0.5189  -0.5094  -0.4543
    -0.4525  -0.4141  -0.2531  -0.1882  -0.1879  -0.1570   0.1311   0.1312
     0.4604   0.4621   0.5601   0.5601   0.6011   0.6019   0.7447   0.7448
     0.8687   0.8706   0.9563   1.5562   1.5741   1.5750   1.6138   1.6197
     1.6606   1.6660   1.7443   1.7446   1.9519   1.9520   2.1853   2.2660
     2.2680   2.2828   2.6606   2.6655   2.7375   2.7383   2.7444   2.7449
     2.8961   2.8970   2.9406   3.0396   3.0403   3.2717   3.2744   3.4066
     3.4338   3.4340   3.7048   3.7050   3.8174   3.8371   3.8371   3.8827
     3.9181   4.0237   4.0248   4.2608   4.2618   4.3458   4.3503   4.4739
     4.4777   4.4930   4.5003   4.6023   4.7784   5.2949   5.3016   5.4045
     5.4063   5.4504   5.5855   5.5858   5.6393   5.6790   5.6989   5.7034
     5.7346   5.7545   5.7547   5.7981   5.9462   6.0103   6.0475   6.0681
     6.0828   6.0930   6.0973   6.1062   6.1082   6.1515   6.1659   6.2452

          k =-0.2500-0.2500 0.0833 (167653 PWs)   bands (ev):

   -19.2490  -7.0645  -6.8694  -6.3409  -6.3405  -5.9111  -5.5021  -5.4090
    -5.4086  -5.2129  -5.2128  -5.0951  -5.0945  -5.0164  -4.9934  -4.9204
    -4.8356  -4.8318  -4.7929  -4.7928  -4.6319  -4.6154  -4.6142  -4.6139
    -4.6069  -4.5513  -4.5512  -4.5394  -4.5392  -4.5024  -4.4897  -4.4893
    -4.4476  -4.4475  -4.4141  -4.4128  -4.3609  -4.3606  -4.3497  -4.3489
    -4.3434  -4.3303  -4.3303  -4.2890  -4.2709  -4.2709  -4.2639  -4.2637
    -4.2314  -4.1818  -4.1667  -4.1665  -4.1627  -4.1625  -4.1549  -4.1492
    -4.1488  -4.1487  -4.0837  -4.0832  -4.0339  -4.0334  -4.0212  -3.9952
    -3.9951  -3.9753  -3.9728  -3.9723  -3.9678  -3.9649  -3.9160  -3.9160
    -3.9030  -3.9028  -3.7976  -3.7973  -3.7915  -3.7911  -3.7540  -3.7448
    -3.7304  -3.7007  -3.7006  -3.6721  -3.6718  -3.6502  -3.6500  -3.6365
    -3.6361  -3.5816  -3.5814  -3.5631  -3.5472  -3.5359  -3.5345  -3.5344
    -3.5328  -3.5058  -3.5057  -3.4694  -3.4694  -3.4468  -3.4465  -3.4137
    -3.4134  -3.3952  -3.3679  -3.3678  -3.3305  -3.3303  -3.2950  -3.2875
    -3.2868  -3.2732  -3.2725  -3.2710  -3.2675  -3.2675  -3.2289  -3.2186
    -3.1780  -3.1779  -3.1701  -3.1605  -3.1599  -3.1584  -3.1341  -3.1340
    -3.1128  -3.1122  -3.1120  -3.0852  -3.0852  -3.0776  -3.0748  -3.0747
    -3.0386  -3.0344  -2.9991  -2.9988  -2.9980  -2.9951  -2.9950  -2.9160
    -2.9060  -2.9015  -2.9013  -2.8999  -2.8997  -2.8948  -2.8948  -2.8946
    -2.8944  -2.8849  -2.8770  -2.8599  -2.8573  -2.8567  -2.8563  -2.8417
    -2.8371  -2.7989  -2.7983  -2.7980  -2.7940  -2.7936  -2.7755  -2.7754
    -2.7665  -2.7664  -2.7643  -2.7046  -2.7045  -2.6992  -2.6992  -2.6941
    -2.6939  -2.6658  -2.6069  -2.6055  -2.6053  -2.6034  -2.5921  -2.5898
    -2.5850  -2.5740  -2.5739  -2.5371  -2.5365  -2.5280  -2.5275  -2.5271
    -2.5267  -2.4873  -2.4870  -2.4772  -2.4772  -2.4757  -2.4755  -2.4336
    -2.4176  -2.4121  -2.3588  -2.3586  -2.3400  -2.3383  -2.3332  -2.3331
    -2.2845  -2.2839  -2.2608  -2.2442  -2.2301  -2.2294  -2.2292  -2.2072
    -2.2071  -2.1974  -2.1809  -2.1399  -2.1396  -2.1257  -2.1255  -2.1252
    -2.1143  -2.1141  -2.0986  -2.0986  -2.0983  -2.0942  -2.0893  -2.0888
    -2.0886  -2.0766  -2.0763  -2.0586  -2.0584  -2.0563  -2.0502  -2.0473
    -2.0471  -2.0233  -2.0231  -2.0119  -2.0098  -2.0054  -2.0049  -1.9667
    -1.9329  -1.9326  -1.8972  -1.8799  -1.8798  -1.8691  -1.8686  -1.8455
    -1.8451  -1.8306  -1.8302  -1.8288  -1.8288  -1.8258  -1.8252  -1.7931
    -1.7931  -1.7928  -1.7468  -1.7465  -1.7067  -1.7065  -1.6594  -1.6592
    -1.6470  -1.6245  -1.6193  -1.6167  -1.6003  -1.5984  -1.5812  -1.5808
    -1.5761  -1.5757  -1.5742  -1.5741  -1.5734  -1.5710  -1.5508  -1.5508
    -1.5403  -1.5229  -1.5040  -1.5039  -1.4774  -1.4773  -1.4746  -1.4742
    -1.4711  -1.4684  -1.4466  -1.4462  -1.4317  -1.4309  -1.4185  -1.4082
    -1.3946  -1.3943  -1.3635  -1.3632  -1.3553  -1.3552  -1.3199  -1.3195
    -1.3114  -1.3111  -1.3025  -1.3022  -1.2808  -1.2806  -1.2687  -1.2620
    -1.2618  -1.2512  -1.2484  -1.2483  -1.2480  -1.2475  -1.2334  -1.2230
    -1.2222  -1.2150  -1.2148  -1.2028  -1.1981  -1.1980  -1.1913  -1.1520
    -1.1498  -1.1449  -1.1427  -1.1421  -1.1412  -1.1026  -1.0861  -1.0854
    -1.0851  -1.0850  -1.0806  -1.0803  -1.0754  -1.0626  -1.0602  -1.0237
    -1.0234  -1.0164  -1.0164  -0.9934  -0.9933  -0.9835  -0.9537  -0.9460
    -0.9187  -0.9184  -0.8905  -0.8905  -0.8879  -0.8867  -0.8857  -0.8818
    -0.8786  -0.8764  -0.8718  -0.8716  -0.8397  -0.8395  -0.8218  -0.8209
    -0.8160  -0.8157  -0.8143  -0.8143  -0.7954  -0.5189  -0.5094  -0.4543
    -0.4525  -0.4141  -0.2531  -0.1882  -0.1879  -0.1570   0.1311   0.1311
     0.4604   0.4621   0.5601   0.5601   0.6011   0.6019   0.7447   0.7448
     0.8687   0.8706   0.9563   1.5562   1.5741   1.5750   1.6138   1.6197
     1.6606   1.6660   1.7443   1.7446   1.9519   1.9520   2.1853   2.2660
     2.2680   2.2828   2.6606   2.6655   2.7375   2.7383   2.7444   2.7449
     2.8961   2.8970   2.9406   3.0396   3.0403   3.2717   3.2744   3.4066
     3.4338   3.4340   3.7048   3.7050   3.8174   3.8371   3.8371   3.8826
     3.9181   4.0237   4.0248   4.2608   4.2618   4.3458   4.3503   4.4739
     4.4777   4.4930   4.5003   4.6026   4.7816   5.2972   5.3014   5.4045
     5.4071   5.4550   5.5855   5.5858   5.6205   5.6835   5.6934   5.7031
     5.7093   5.7545   5.7547   5.7981   5.9318   6.0348   6.0428   6.0676
     6.0827   6.0935   6.0973   6.1067   6.1204   6.1298   6.1747   6.1979

          k =-0.2500 0.2500-0.0833 (167653 PWs)   bands (ev):

   -19.2490  -7.0645  -6.8694  -6.3409  -6.3405  -5.9111  -5.5021  -5.4090
    -5.4086  -5.2129  -5.2128  -5.0951  -5.0946  -5.0164  -4.9934  -4.9204
    -4.8356  -4.8318  -4.7929  -4.7928  -4.6319  -4.6154  -4.6142  -4.6139
    -4.6069  -4.5513  -4.5512  -4.5394  -4.5392  -4.5024  -4.4898  -4.4893
    -4.4476  -4.4475  -4.4141  -4.4128  -4.3610  -4.3605  -4.3497  -4.3489
    -4.3434  -4.3303  -4.3303  -4.2890  -4.2710  -4.2708  -4.2639  -4.2637
    -4.2314  -4.1818  -4.1668  -4.1665  -4.1627  -4.1624  -4.1549  -4.1492
    -4.1488  -4.1487  -4.0837  -4.0832  -4.0338  -4.0335  -4.0212  -3.9952
    -3.9951  -3.9752  -3.9728  -3.9723  -3.9678  -3.9649  -3.9160  -3.9160
    -3.9030  -3.9027  -3.7977  -3.7973  -3.7915  -3.7911  -3.7540  -3.7448
    -3.7304  -3.7007  -3.7006  -3.6721  -3.6718  -3.6502  -3.6500  -3.6365
    -3.6361  -3.5816  -3.5814  -3.5631  -3.5472  -3.5359  -3.5345  -3.5344
    -3.5328  -3.5058  -3.5057  -3.4694  -3.4694  -3.4468  -3.4465  -3.4137
    -3.4134  -3.3952  -3.3679  -3.3678  -3.3305  -3.3303  -3.2950  -3.2875
    -3.2868  -3.2732  -3.2725  -3.2711  -3.2675  -3.2675  -3.2289  -3.2186
    -3.1780  -3.1779  -3.1701  -3.1605  -3.1599  -3.1584  -3.1340  -3.1340
    -3.1128  -3.1124  -3.1118  -3.0852  -3.0852  -3.0776  -3.0748  -3.0747
    -3.0386  -3.0344  -2.9991  -2.9988  -2.9980  -2.9951  -2.9950  -2.9160
    -2.9060  -2.9016  -2.9012  -2.8999  -2.8997  -2.8949  -2.8947  -2.8946
    -2.8943  -2.8849  -2.8770  -2.8599  -2.8573  -2.8567  -2.8563  -2.8417
    -2.8371  -2.7989  -2.7983  -2.7980  -2.7940  -2.7936  -2.7756  -2.7753
    -2.7665  -2.7664  -2.7643  -2.7046  -2.7046  -2.6992  -2.6992  -2.6941
    -2.6940  -2.6658  -2.6068  -2.6056  -2.6051  -2.6034  -2.5921  -2.5898
    -2.5850  -2.5740  -2.5739  -2.5371  -2.5365  -2.5280  -2.5275  -2.5270
    -2.5267  -2.4873  -2.4870  -2.4772  -2.4772  -2.4757  -2.4755  -2.4336
    -2.4176  -2.4121  -2.3588  -2.3586  -2.3400  -2.3383  -2.3332  -2.3331
    -2.2845  -2.2839  -2.2608  -2.2442  -2.2301  -2.2294  -2.2292  -2.2073
    -2.2071  -2.1974  -2.1809  -2.1400  -2.1395  -2.1258  -2.1254  -2.1253
    -2.1143  -2.1141  -2.0987  -2.0986  -2.0983  -2.0942  -2.0893  -2.0888
    -2.0885  -2.0766  -2.0763  -2.0586  -2.0584  -2.0563  -2.0502  -2.0473
    -2.0471  -2.0234  -2.0231  -2.0119  -2.0098  -2.0054  -2.0049  -1.9667
    -1.9330  -1.9325  -1.8972  -1.8800  -1.8797  -1.8691  -1.8686  -1.8455
    -1.8450  -1.8306  -1.8302  -1.8288  -1.8288  -1.8258  -1.8252  -1.7931
    -1.7931  -1.7928  -1.7468  -1.7465  -1.7068  -1.7065  -1.6594  -1.6592
    -1.6470  -1.6244  -1.6193  -1.6167  -1.6003  -1.5984  -1.5812  -1.5808
    -1.5762  -1.5757  -1.5743  -1.5740  -1.5734  -1.5710  -1.5508  -1.5508
    -1.5403  -1.5229  -1.5040  -1.5039  -1.4774  -1.4773  -1.4746  -1.4742
    -1.4711  -1.4684  -1.4466  -1.4462  -1.4317  -1.4309  -1.4185  -1.4082
    -1.3946  -1.3943  -1.3635  -1.3632  -1.3553  -1.3552  -1.3199  -1.3194
    -1.3114  -1.3111  -1.3026  -1.3022  -1.2808  -1.2806  -1.2687  -1.2620
    -1.2618  -1.2520  -1.2486  -1.2481  -1.2477  -1.2468  -1.2334  -1.2230
    -1.2222  -1.2150  -1.2148  -1.2027  -1.1982  -1.1980  -1.1913  -1.1520
    -1.1498  -1.1449  -1.1427  -1.1421  -1.1413  -1.1026  -1.0861  -1.0854
    -1.0851  -1.0850  -1.0806  -1.0803  -1.0754  -1.0627  -1.0602  -1.0237
    -1.0233  -1.0164  -1.0164  -0.9934  -0.9933  -0.9835  -0.9537  -0.9460
    -0.9187  -0.9184  -0.8906  -0.8904  -0.8879  -0.8867  -0.8857  -0.8818
    -0.8786  -0.8764  -0.8719  -0.8716  -0.8397  -0.8395  -0.8218  -0.8209
    -0.8160  -0.8157  -0.8144  -0.8142  -0.7954  -0.5189  -0.5094  -0.4543
    -0.4524  -0.4141  -0.2531  -0.1882  -0.1878  -0.1570   0.1311   0.1312
     0.4603   0.4622   0.5601   0.5602   0.6010   0.6019   0.7444   0.7450
     0.8687   0.8706   0.9563   1.5562   1.5741   1.5750   1.6138   1.6197
     1.6605   1.6661   1.7442   1.7447   1.9518   1.9520   2.1853   2.2660
     2.2681   2.2828   2.6606   2.6656   2.7375   2.7383   2.7444   2.7450
     2.8961   2.8970   2.9406   3.0392   3.0407   3.2717   3.2743   3.4066
     3.4337   3.4342   3.7042   3.7055   3.8176   3.8371   3.8371   3.8829
     3.9179   4.0237   4.0249   4.2608   4.2618   4.3463   4.3500   4.4740
     4.4776   4.4931   4.5004   4.5997   4.7835   5.2981   5.3017   5.4047
     5.4067   5.4548   5.5852   5.5860   5.6235   5.6792   5.6952   5.7031
     5.7117   5.7544   5.7549   5.7981   5.9354   6.0225   6.0469   6.0678
     6.0829   6.0936   6.0973   6.1062   6.1203   6.1292   6.1733   6.1993

          k = 0.2500-0.2500-0.0833 (167653 PWs)   bands (ev):

   -19.2490  -7.0645  -6.8694  -6.3409  -6.3405  -5.9111  -5.5021  -5.4090
    -5.4086  -5.2129  -5.2128  -5.0951  -5.0946  -5.0164  -4.9934  -4.9204
    -4.8356  -4.8318  -4.7929  -4.7928  -4.6319  -4.6154  -4.6142  -4.6139
    -4.6069  -4.5513  -4.5512  -4.5394  -4.5392  -4.5024  -4.4898  -4.4893
    -4.4476  -4.4475  -4.4141  -4.4128  -4.3610  -4.3605  -4.3497  -4.3489
    -4.3434  -4.3303  -4.3303  -4.2890  -4.2710  -4.2708  -4.2639  -4.2637
    -4.2314  -4.1818  -4.1668  -4.1665  -4.1627  -4.1624  -4.1549  -4.1492
    -4.1488  -4.1487  -4.0837  -4.0832  -4.0338  -4.0335  -4.0212  -3.9952
    -3.9951  -3.9752  -3.9728  -3.9723  -3.9678  -3.9649  -3.9160  -3.9160
    -3.9030  -3.9027  -3.7977  -3.7973  -3.7915  -3.7911  -3.7540  -3.7448
    -3.7304  -3.7007  -3.7006  -3.6721  -3.6718  -3.6502  -3.6500  -3.6365
    -3.6361  -3.5816  -3.5814  -3.5631  -3.5472  -3.5359  -3.5345  -3.5344
    -3.5328  -3.5058  -3.5057  -3.4694  -3.4694  -3.4468  -3.4465  -3.4137
    -3.4134  -3.3952  -3.3679  -3.3678  -3.3305  -3.3303  -3.2950  -3.2875
    -3.2868  -3.2732  -3.2725  -3.2711  -3.2675  -3.2675  -3.2289  -3.2186
    -3.1780  -3.1779  -3.1701  -3.1605  -3.1599  -3.1584  -3.1340  -3.1340
    -3.1128  -3.1124  -3.1118  -3.0852  -3.0852  -3.0776  -3.0748  -3.0747
    -3.0386  -3.0344  -2.9991  -2.9988  -2.9980  -2.9951  -2.9950  -2.9160
    -2.9060  -2.9016  -2.9012  -2.8999  -2.8997  -2.8949  -2.8947  -2.8946
    -2.8943  -2.8849  -2.8770  -2.8599  -2.8573  -2.8567  -2.8563  -2.8417
    -2.8371  -2.7989  -2.7983  -2.7980  -2.7940  -2.7936  -2.7756  -2.7753
    -2.7665  -2.7664  -2.7643  -2.7046  -2.7046  -2.6992  -2.6992  -2.6941
    -2.6940  -2.6658  -2.6068  -2.6056  -2.6051  -2.6034  -2.5921  -2.5898
    -2.5850  -2.5740  -2.5739  -2.5371  -2.5365  -2.5280  -2.5275  -2.5270
    -2.5267  -2.4873  -2.4870  -2.4772  -2.4772  -2.4757  -2.4755  -2.4336
    -2.4176  -2.4121  -2.3588  -2.3586  -2.3400  -2.3383  -2.3332  -2.3331
    -2.2845  -2.2839  -2.2608  -2.2442  -2.2301  -2.2294  -2.2292  -2.2073
    -2.2071  -2.1974  -2.1809  -2.1400  -2.1395  -2.1258  -2.1254  -2.1253
    -2.1143  -2.1141  -2.0987  -2.0986  -2.0983  -2.0942  -2.0893  -2.0888
    -2.0885  -2.0766  -2.0763  -2.0586  -2.0584  -2.0563  -2.0502  -2.0473
    -2.0471  -2.0234  -2.0231  -2.0119  -2.0098  -2.0054  -2.0049  -1.9667
    -1.9330  -1.9325  -1.8972  -1.8800  -1.8797  -1.8691  -1.8686  -1.8455
    -1.8450  -1.8306  -1.8302  -1.8288  -1.8288  -1.8258  -1.8252  -1.7931
    -1.7931  -1.7928  -1.7468  -1.7465  -1.7068  -1.7065  -1.6594  -1.6592
    -1.6470  -1.6244  -1.6193  -1.6167  -1.6003  -1.5984  -1.5812  -1.5808
    -1.5762  -1.5757  -1.5743  -1.5740  -1.5734  -1.5710  -1.5508  -1.5508
    -1.5403  -1.5229  -1.5040  -1.5039  -1.4774  -1.4773  -1.4746  -1.4742
    -1.4711  -1.4684  -1.4466  -1.4462  -1.4317  -1.4309  -1.4185  -1.4082
    -1.3946  -1.3943  -1.3635  -1.3632  -1.3553  -1.3552  -1.3199  -1.3194
    -1.3114  -1.3111  -1.3026  -1.3022  -1.2808  -1.2806  -1.2687  -1.2620
    -1.2618  -1.2520  -1.2486  -1.2481  -1.2477  -1.2468  -1.2334  -1.2230
    -1.2222  -1.2150  -1.2148  -1.2027  -1.1982  -1.1980  -1.1913  -1.1520
    -1.1498  -1.1449  -1.1427  -1.1421  -1.1413  -1.1026  -1.0861  -1.0854
    -1.0851  -1.0850  -1.0806  -1.0803  -1.0754  -1.0627  -1.0602  -1.0237
    -1.0233  -1.0164  -1.0164  -0.9934  -0.9933  -0.9835  -0.9537  -0.9460
    -0.9187  -0.9184  -0.8906  -0.8904  -0.8879  -0.8867  -0.8857  -0.8818
    -0.8786  -0.8764  -0.8719  -0.8716  -0.8397  -0.8395  -0.8218  -0.8209
    -0.8160  -0.8157  -0.8144  -0.8142  -0.7954  -0.5189  -0.5094  -0.4543
    -0.4524  -0.4141  -0.2531  -0.1882  -0.1878  -0.1570   0.1311   0.1312
     0.4603   0.4622   0.5601   0.5602   0.6010   0.6019   0.7444   0.7450
     0.8687   0.8706   0.9563   1.5562   1.5741   1.5750   1.6138   1.6197
     1.6605   1.6661   1.7442   1.7447   1.9518   1.9520   2.1853   2.2660
     2.2681   2.2828   2.6606   2.6656   2.7375   2.7383   2.7444   2.7450
     2.8961   2.8970   2.9406   3.0392   3.0407   3.2717   3.2743   3.4066
     3.4337   3.4342   3.7042   3.7055   3.8176   3.8371   3.8371   3.8829
     3.9179   4.0237   4.0249   4.2608   4.2618   4.3463   4.3500   4.4740
     4.4776   4.4931   4.5004   4.5997   4.7836   5.2981   5.3017   5.4047
     5.4067   5.4551   5.5852   5.5860   5.6232   5.6792   5.6951   5.7031
     5.7115   5.7544   5.7549   5.7981   5.9352   6.0228   6.0470   6.0678
     6.0829   6.0937   6.0973   6.1062   6.1204   6.1299   6.1742   6.1991

          k =-0.2500 0.2500 0.2500 (167588 PWs)   bands (ev):

   -19.2490  -7.0645  -6.8694  -6.3409  -6.3405  -5.9111  -5.5021  -5.4090
    -5.4086  -5.2129  -5.2128  -5.0951  -5.0946  -5.0164  -4.9934  -4.9204
    -4.8356  -4.8318  -4.7929  -4.7928  -4.6319  -4.6154  -4.6142  -4.6139
    -4.6070  -4.5513  -4.5512  -4.5394  -4.5392  -4.5024  -4.4898  -4.4893
    -4.4476  -4.4475  -4.4141  -4.4128  -4.3610  -4.3605  -4.3497  -4.3489
    -4.3434  -4.3303  -4.3303  -4.2890  -4.2710  -4.2708  -4.2639  -4.2637
    -4.2314  -4.1818  -4.1668  -4.1665  -4.1627  -4.1624  -4.1549  -4.1492
    -4.1488  -4.1488  -4.0837  -4.0832  -4.0338  -4.0335  -4.0212  -3.9952
    -3.9951  -3.9752  -3.9728  -3.9723  -3.9678  -3.9650  -3.9160  -3.9160
    -3.9030  -3.9027  -3.7977  -3.7973  -3.7915  -3.7911  -3.7540  -3.7448
    -3.7304  -3.7007  -3.7006  -3.6721  -3.6718  -3.6502  -3.6500  -3.6365
    -3.6361  -3.5816  -3.5814  -3.5631  -3.5472  -3.5359  -3.5345  -3.5344
    -3.5328  -3.5058  -3.5057  -3.4694  -3.4694  -3.4468  -3.4465  -3.4137
    -3.4134  -3.3952  -3.3679  -3.3678  -3.3305  -3.3303  -3.2950  -3.2875
    -3.2868  -3.2731  -3.2725  -3.2711  -3.2675  -3.2675  -3.2289  -3.2186
    -3.1780  -3.1779  -3.1701  -3.1605  -3.1599  -3.1584  -3.1340  -3.1340
    -3.1128  -3.1124  -3.1118  -3.0852  -3.0851  -3.0776  -3.0748  -3.0747
    -3.0386  -3.0344  -2.9991  -2.9988  -2.9980  -2.9951  -2.9950  -2.9160
    -2.9060  -2.9016  -2.9012  -2.8999  -2.8997  -2.8949  -2.8947  -2.8946
    -2.8943  -2.8849  -2.8770  -2.8599  -2.8573  -2.8567  -2.8563  -2.8416
    -2.8371  -2.7989  -2.7983  -2.7980  -2.7940  -2.7936  -2.7756  -2.7753
    -2.7665  -2.7664  -2.7643  -2.7046  -2.7046  -2.6992  -2.6992  -2.6941
    -2.6939  -2.6658  -2.6068  -2.6056  -2.6051  -2.6034  -2.5921  -2.5898
    -2.5850  -2.5740  -2.5738  -2.5371  -2.5365  -2.5280  -2.5275  -2.5270
    -2.5267  -2.4873  -2.4870  -2.4772  -2.4772  -2.4757  -2.4755  -2.4336
    -2.4176  -2.4121  -2.3588  -2.3586  -2.3400  -2.3384  -2.3332  -2.3331
    -2.2845  -2.2839  -2.2608  -2.2443  -2.2301  -2.2294  -2.2292  -2.2072
    -2.2071  -2.1974  -2.1809  -2.1400  -2.1395  -2.1258  -2.1254  -2.1253
    -2.1143  -2.1141  -2.0987  -2.0986  -2.0983  -2.0942  -2.0893  -2.0888
    -2.0885  -2.0766  -2.0763  -2.0586  -2.0584  -2.0563  -2.0502  -2.0473
    -2.0471  -2.0234  -2.0231  -2.0119  -2.0098  -2.0054  -2.0049  -1.9668
    -1.9330  -1.9325  -1.8972  -1.8800  -1.8797  -1.8691  -1.8686  -1.8455
    -1.8450  -1.8306  -1.8302  -1.8288  -1.8288  -1.8258  -1.8252  -1.7931
    -1.7931  -1.7928  -1.7468  -1.7465  -1.7068  -1.7065  -1.6594  -1.6592
    -1.6470  -1.6244  -1.6193  -1.6167  -1.6003  -1.5985  -1.5812  -1.5808
    -1.5762  -1.5757  -1.5743  -1.5740  -1.5734  -1.5710  -1.5508  -1.5508
    -1.5403  -1.5229  -1.5040  -1.5039  -1.4774  -1.4773  -1.4746  -1.4742
    -1.4711  -1.4684  -1.4466  -1.4462  -1.4317  -1.4309  -1.4185  -1.4082
    -1.3946  -1.3943  -1.3635  -1.3632  -1.3553  -1.3552  -1.3198  -1.3194
    -1.3114  -1.3111  -1.3026  -1.3022  -1.2808  -1.2806  -1.2686  -1.2620
    -1.2618  -1.2520  -1.2486  -1.2481  -1.2477  -1.2468  -1.2334  -1.2230
    -1.2222  -1.2150  -1.2148  -1.2027  -1.1982  -1.1980  -1.1913  -1.1520
    -1.1498  -1.1449  -1.1427  -1.1422  -1.1412  -1.1026  -1.0861  -1.0854
    -1.0851  -1.0850  -1.0806  -1.0803  -1.0754  -1.0627  -1.0602  -1.0237
    -1.0233  -1.0164  -1.0164  -0.9934  -0.9933  -0.9835  -0.9537  -0.9460
    -0.9187  -0.9184  -0.8906  -0.8904  -0.8879  -0.8867  -0.8857  -0.8818
    -0.8786  -0.8764  -0.8719  -0.8716  -0.8397  -0.8395  -0.8218  -0.8209
    -0.8160  -0.8157  -0.8144  -0.8142  -0.7954  -0.5189  -0.5094  -0.4543
    -0.4524  -0.4141  -0.2531  -0.1882  -0.1878  -0.1570   0.1311   0.1312
     0.4603   0.4622   0.5601   0.5602   0.6010   0.6020   0.7445   0.7450
     0.8687   0.8706   0.9563   1.5562   1.5741   1.5750   1.6138   1.6197
     1.6605   1.6661   1.7442   1.7447   1.9518   1.9520   2.1853   2.2660
     2.2680   2.2828   2.6606   2.6656   2.7375   2.7383   2.7444   2.7450
     2.8961   2.8970   2.9406   3.0392   3.0407   3.2717   3.2743   3.4066
     3.4337   3.4342   3.7043   3.7055   3.8176   3.8371   3.8371   3.8831
     3.9180   4.0237   4.0249   4.2608   4.2618   4.3463   4.3500   4.4740
     4.4776   4.4931   4.5004   4.5993   4.7803   5.2959   5.3017   5.4044
     5.4064   5.4519   5.5852   5.5861   5.6411   5.6756   5.7002   5.7034
     5.7343   5.7544   5.7549   5.7981   5.9453   6.0119   6.0469   6.0671
     6.0829   6.0926   6.0973   6.1062   6.1070   6.1499   6.1676   6.2475

     the Fermi energy is     0.8191 ev

!    total energy              =   -7425.28739387 Ry
     Harris-Foulkes estimate   =   -7425.28739386 Ry
     estimated scf accuracy    <          5.1E-09 Ry

     The total energy is the sum of the following terms:

     one-electron contribution =  -48264.95932525 Ry
     hartree contribution      =   24682.02462485 Ry
     xc contribution           =   -3604.19329621 Ry
     ewald contribution        =   19761.84354606 Ry
     smearing contrib. (-TS)   =      -0.00294332 Ry

     convergence has been achieved in  28 iterations

     Writing output data file 5084738.save

     init_run     :    117.06s CPU    124.59s WALL (       1 calls)
     electrons    :   7690.52s CPU   8123.05s WALL (       1 calls)

     Called by init_run:
     wfcinit      :     79.39s CPU     86.25s WALL (       1 calls)
     potinit      :      7.54s CPU      7.89s WALL (       1 calls)

     Called by electrons:
     c_bands      :   5729.38s CPU   6073.77s WALL (      29 calls)
     sum_band     :   1214.83s CPU   1286.90s WALL (      29 calls)
     v_of_rho     :    155.78s CPU    166.08s WALL (      29 calls)
     newd         :    606.25s CPU    611.51s WALL (      29 calls)
     mix_rho      :      4.76s CPU      5.18s WALL (      29 calls)
     vdW_energy   :     10.52s CPU     11.10s WALL (      29 calls)
     vdW_ffts     :     85.76s CPU     91.11s WALL (      58 calls)
     vdW_v        :     18.87s CPU     19.74s WALL (      29 calls)

     Called by c_bands:
     init_us_2    :      9.74s CPU     10.05s WALL (     354 calls)
     cegterg      :   5665.17s CPU   6008.72s WALL (     174 calls)

     Called by *egterg:
     h_psi        :   2531.51s CPU   2841.37s WALL (     830 calls)
     s_psi        :    359.16s CPU    361.29s WALL (     830 calls)
     g_psi        :      4.63s CPU      4.61s WALL (     650 calls)
     cdiaghg      :   1597.65s CPU   1602.53s WALL (     818 calls)

     Called by h_psi:
     add_vuspsi   :    360.44s CPU    362.55s WALL (     830 calls)

     General routines
     calbec       :    561.74s CPU    563.73s WALL (    1004 calls)
     fft          :    439.17s CPU    449.97s WALL (    1914 calls)
     ffts         :      2.54s CPU      2.77s WALL (      58 calls)
     fftw         :   2114.36s CPU   2466.71s WALL (  463528 calls)
     interpolate  :      6.32s CPU      6.98s WALL (      58 calls)
     davcio       :      0.00s CPU      0.13s WALL (       6 calls)

     Parallel routines
     fft_scatter  :   1923.80s CPU   2232.95s WALL (  465500 calls)

     PWSCF        :     2h10m CPU        2h17m WALL


   This run was terminated on:  19: 1:26   5Jul2015            

=------------------------------------------------------------------------------=
   JOB DONE.
=------------------------------------------------------------------------------=
