Setting SGE environment for SCC

     Program PWSCF v.5.1.2 starts on  5Jul2015 at 21: 1:10 

     This program is part of the open-source Quantum ESPRESSO suite
     for quantum simulation of materials; please cite
         "P. Giannozzi et al., J. Phys.:Condens. Matter 21 395502 (2009);
          URL http://www.quantum-espresso.org", 
     in publications or presentations arising from this work. More details at
     http://www.quantum-espresso.org/quote

     Parallel version (MPI), running on    32 processors
     R & G space division:  proc/nbgrp/npool/nimage =      32
     Reading input from hollow.H2.Au5859.d.2.3.phi.0.psi.90.in
Warning: card &IONS ignored
Warning: card / ignored
Warning: card &CELL ignored
Warning: card / ignored

     Current dimensions of program PWSCF are:
     Max number of different atomic species (ntypx) = 10
     Max number of k-points (npk) =  40000
     Max angular momentum in pseudopotentials (lmaxx) =  3

     IMPORTANT: XC functional enforced from input :
     Exchange-correlation      = VDW-DF ( 1  4  4  0 1 0)
     Any further DFT definition will be discarded
     Please, verify this is what you really want


     Subspace diagonalization in iterative solution of the eigenvalue problem:
     a serial algorithm will be used


     Parallelization info
     --------------------
     sticks:   dense  smooth     PW     G-vecs:    dense   smooth      PW
     Min         578     289     74               118518    41891    5486
     Max         579     290     75               118533    41932    5497
     Sum       18505    9265   2385              3792731  1341081  175711


     Title: 
     hollow.H2.Au5859.d.2.3.phi.0.psi.90                                        


     bravais-lattice index     =            8
     lattice parameter (alat)  =      24.1233  a.u.
     unit-cell volume          =   28076.2361 (a.u.)^3
     number of atoms/cell      =           75
     number of atomic types    =            3
     number of electrons       =       800.00
     number of Kohn-Sham states=          480
     kinetic-energy cutoff     =      50.0000  Ry
     charge density cutoff     =     400.0000  Ry
     convergence threshold     =      1.0E-08
     mixing beta               =       0.7000
     number of iterations used =            8  plain     mixing
     Exchange-correlation      = VDW-DF ( 1  4  4  0 1 0)

     celldm(1)=  24.123277  celldm(2)=   1.000000  celldm(3)=   2.000000
     celldm(4)=   0.000000  celldm(5)=   0.000000  celldm(6)=   0.000000

     crystal axes: (cart. coord. in units of alat)
               a(1) = (   1.000000   0.000000   0.000000 )  
               a(2) = (   0.000000   1.000000   0.000000 )  
               a(3) = (   0.000000   0.000000   2.000000 )  

     reciprocal axes: (cart. coord. in units 2 pi/alat)
               b(1) = (  1.000000  0.000000  0.000000 )  
               b(2) = (  0.000000  1.000000  0.000000 )  
               b(3) = (  0.000000  0.000000  0.500000 )  


     PseudoPot. # 1 for Au read from file:
     /home/scc/andrejb/qe/pseudo/Au.pbe-nd-van.UPF
     MD5 check sum: 458681b50f36d87ef23c61b04bba420a
     Pseudo is Ultrasoft + core correction, Zval = 11.0
     Generated by new atomic code, or converted to UPF format
     Using radial grid of  985 points,  3 beta functions with: 
                l(1) =   1
                l(2) =   2
                l(3) =   2
     Q(r) pseudized with  8 coefficients,  rinner =    1.100   1.100   1.100
                                                       1.100   1.100

     PseudoPot. # 2 for H  read from file:
     /home/scc/andrejb/qe/pseudo/H.pbe-van_ak.UPF
     MD5 check sum: 403db7282739603aa925980fa9b8608d
     Pseudo is Ultrasoft, Zval =  1.0
     Generated by new atomic code, or converted to UPF format
     Using radial grid of  615 points,  1 beta functions with: 
                l(1) =   0
     Q(r) pseudized with  8 coefficients,  rinner =    0.800

     PseudoPot. # 3 for O  read from file:
     /home/scc/andrejb/qe/pseudo/O.pbe-van_ak.UPF
     MD5 check sum: 4b8c549914a63cae506c6ff22b5af4fe
     Pseudo is Ultrasoft, Zval =  6.0
     Generated by new atomic code, or converted to UPF format
     Using radial grid of  737 points,  4 beta functions with: 
                l(1) =   0
                l(2) =   0
                l(3) =   1
                l(4) =   1
     Q(r) pseudized with  8 coefficients,  rinner =    0.800   0.800   0.800


     vdW kernel table read from file vdW_kernel_table
     MD5 check sum: 48e77a2e26edf626eeb0eaa751ad5cac

     atomic species   valence    mass     pseudopotential
        Au            11.00   196.96657     Au( 1.00)
        H              1.00     1.01000     H ( 1.00)
        O              6.00    16.00000     O ( 1.00)

     No symmetry found



   Cartesian axes

     site n.     atom                  positions (alat units)
         1           O   tau(   1) = (   0.1840006   0.0937550   0.8506468  )
         2           H   tau(   2) = (   0.1666051   0.1666105   0.8361597  )
         3           H   tau(   3) = (   0.1341739   0.0535643   0.8091687  )
         4           Au  tau(   4) = (   0.0000000   0.0000000   0.0000000  )
         5           Au  tau(   5) = (   0.3332217   0.0000000   0.0000000  )
         6           Au  tau(   6) = (   0.6664434   0.0000000   0.0000000  )
         7           Au  tau(   7) = (   0.1666109   0.1666109   0.0000000  )
         8           Au  tau(   8) = (   0.4998326   0.1666109   0.0000000  )
         9           Au  tau(   9) = (   0.8330542   0.1666109   0.0000000  )
        10           Au  tau(  10) = (   0.0000000   0.3332217   0.0000000  )
        11           Au  tau(  11) = (   0.3332217   0.3332217   0.0000000  )
        12           Au  tau(  12) = (   0.6664434   0.3332217   0.0000000  )
        13           Au  tau(  13) = (   0.1666109   0.4998326   0.0000000  )
        14           Au  tau(  14) = (   0.4998326   0.4998326   0.0000000  )
        15           Au  tau(  15) = (   0.8330542   0.4998326   0.0000000  )
        16           Au  tau(  16) = (   0.0000000   0.6664434   0.0000000  )
        17           Au  tau(  17) = (   0.3332217   0.6664434   0.0000000  )
        18           Au  tau(  18) = (   0.6664434   0.6664434   0.0000000  )
        19           Au  tau(  19) = (   0.1666109   0.8330542   0.0000000  )
        20           Au  tau(  20) = (   0.4998326   0.8330542   0.0000000  )
        21           Au  tau(  21) = (   0.8330542   0.8330542   0.0000000  )
        22           Au  tau(  22) = (   0.1666109   0.0000000   0.1666109  )
        23           Au  tau(  23) = (   0.4998326   0.0000000   0.1666109  )
        24           Au  tau(  24) = (   0.8330542   0.0000000   0.1666109  )
        25           Au  tau(  25) = (   0.0000000   0.1666109   0.1666109  )
        26           Au  tau(  26) = (   0.3332217   0.1666109   0.1666109  )
        27           Au  tau(  27) = (   0.6664434   0.1666109   0.1666109  )
        28           Au  tau(  28) = (   0.1666109   0.3332217   0.1666109  )
        29           Au  tau(  29) = (   0.4998326   0.3332217   0.1666109  )
        30           Au  tau(  30) = (   0.8330542   0.3332217   0.1666109  )
        31           Au  tau(  31) = (   0.0000000   0.4998326   0.1666109  )
        32           Au  tau(  32) = (   0.3332217   0.4998326   0.1666109  )
        33           Au  tau(  33) = (   0.6664434   0.4998326   0.1666109  )
        34           Au  tau(  34) = (   0.1666109   0.6664434   0.1666109  )
        35           Au  tau(  35) = (   0.4998326   0.6664434   0.1666109  )
        36           Au  tau(  36) = (   0.8330542   0.6664434   0.1666109  )
        37           Au  tau(  37) = (   0.0000000   0.8330542   0.1666109  )
        38           Au  tau(  38) = (   0.3332217   0.8330542   0.1666109  )
        39           Au  tau(  39) = (   0.6664434   0.8330542   0.1666109  )
        40           Au  tau(  40) = (  -0.0000182  -0.0000182   0.3335478  )
        41           Au  tau(  41) = (   0.3332215  -0.0000181   0.3335473  )
        42           Au  tau(  42) = (   0.6664447  -0.0000183   0.3335481  )
        43           Au  tau(  43) = (  -0.0000181   0.3332215   0.3335473  )
        44           Au  tau(  44) = (   0.3332215   0.3332215   0.3335468  )
        45           Au  tau(  45) = (   0.6664445   0.3332215   0.3335477  )
        46           Au  tau(  46) = (  -0.0000183   0.6664447   0.3335481  )
        47           Au  tau(  47) = (   0.3332215   0.6664445   0.3335477  )
        48           Au  tau(  48) = (   0.6664446   0.6664446   0.3335486  )
        49           Au  tau(  49) = (   0.1666097   0.1666097   0.3335483  )
        50           Au  tau(  50) = (   0.4998320   0.1666098   0.3335477  )
        51           Au  tau(  51) = (   0.8330732   0.1666096   0.3335480  )
        52           Au  tau(  52) = (   0.1666098   0.4998320   0.3335477  )
        53           Au  tau(  53) = (   0.4998322   0.4998322   0.3335470  )
        54           Au  tau(  54) = (   0.8330731   0.4998322   0.3335474  )
        55           Au  tau(  55) = (   0.1666096   0.8330732   0.3335480  )
        56           Au  tau(  56) = (   0.4998322   0.8330731   0.3335474  )
        57           Au  tau(  57) = (   0.8330731   0.8330731   0.3335478  )
        58           Au  tau(  58) = (   0.1666104  -0.0000111   0.4993095  )
        59           Au  tau(  59) = (   0.4998323  -0.0000112   0.4993099  )
        60           Au  tau(  60) = (   0.8330660  -0.0000111   0.4993009  )
        61           Au  tau(  61) = (  -0.0000111   0.1666104   0.4993095  )
        62           Au  tau(  62) = (   0.3332213   0.1666106   0.4993185  )
        63           Au  tau(  63) = (   0.6664437   0.1666106   0.4993187  )
        64           Au  tau(  64) = (   0.1666106   0.3332213   0.4993185  )
        65           Au  tau(  65) = (   0.4998324   0.3332216   0.4993185  )
        66           Au  tau(  66) = (   0.8330658   0.3332215   0.4993102  )
        67           Au  tau(  67) = (  -0.0000112   0.4998323   0.4993099  )
        68           Au  tau(  68) = (   0.3332216   0.4998324   0.4993185  )
        69           Au  tau(  69) = (   0.6664437   0.4998325   0.4993187  )
        70           Au  tau(  70) = (   0.1666106   0.6664437   0.4993187  )
        71           Au  tau(  71) = (   0.4998325   0.6664437   0.4993187  )
        72           Au  tau(  72) = (   0.8330658   0.6664438   0.4993102  )
        73           Au  tau(  73) = (  -0.0000111   0.8330660   0.4993009  )
        74           Au  tau(  74) = (   0.3332215   0.8330658   0.4993102  )
        75           Au  tau(  75) = (   0.6664438   0.8330658   0.4993102  )

     number of k points=     6  Marzari-Vanderbilt smearing, width (Ry)=  0.0200
                       cart. coord. in units 2pi/alat
        k(    1) = (   0.2500000   0.2500000   0.0833333), wk =   0.3333333
        k(    2) = (   0.2500000   0.2500000  -0.2500000), wk =   0.3333333
        k(    3) = (  -0.2500000  -0.2500000   0.0833333), wk =   0.3333333
        k(    4) = (  -0.2500000   0.2500000  -0.0833333), wk =   0.3333333
        k(    5) = (   0.2500000  -0.2500000  -0.0833333), wk =   0.3333333
        k(    6) = (  -0.2500000   0.2500000   0.2500000), wk =   0.3333333

     Dense  grid:  3792731 G-vectors     FFT dimensions: ( 160, 160, 320)

     Smooth grid:  1341081 G-vectors     FFT dimensions: ( 120, 120, 225)

     Largest allocated arrays     est. size (Mb)     dimensions
        Kohn-Sham Wavefunctions        38.58 Mb     (    5267,  480)
        NL pseudopotentials            76.03 Mb     (    5267,  946)
        Each V/rho on FFT grid          3.91 Mb     (  256000)
        Each G-vector array             0.90 Mb     (  118520)
        G-vector shells                 0.08 Mb     (   10286)
     Largest temporary arrays     est. size (Mb)     dimensions
        Auxiliary wavefunctions       154.31 Mb     (    5267, 1920)
        Each subspace H/S matrix       56.25 Mb     (    1920, 1920)
        Each <psi_i|beta_j> matrix      6.93 Mb     (     946,  480)
        Arrays for rho mixing          31.25 Mb     (  256000,    8)

     Initial potential from superposition of free atoms
     Check: negative starting charge=   -1.944975

     starting charge  799.16392, renormalised to  800.00000

     negative rho (up, down):  1.947E+00 0.000E+00


     ************************************************************************
     *
     * You are using vdW-DF for exchange-correlation in this calculation.
     * Please cite the following three references that made this development
     * possible:
     *
     *   M. Dion, H. Rydberg, E. Schroder, D. C. Langreth, and
     *   B. I. Lundqvist, Phys. Rev. Lett. 92, 246401 (2004).
     *
     *   T. Thonhauser, V. R. Cooper, S. Li, A. Puzder, P. Hyldgaard, and
     *   D. C. Langreth, Phys. Rev. B 76, 125112 (2007).
     *
     *   G. Roman-Perez and J. M. Soler, Phys. Rev. Lett. 103, 096102 (2009).
     *
     *
     * If you are using vdW-DF2, please also cite:
     *
     *   K. Lee, E. D. Murray, L. Kong, B. I. Lundqvist, and
     *   D. C. Langreth, Phys. Rev. B 82, 081101(R) (2010).
     *
     *
     * If you are calculating the stress with vdW-DF, please also cite:
     *
     *   R. Sabatini, E. Kucukbenli, B. Kolb, T. Thonhauser, and
     *   S. de Gironcoli, J. Phys.: Condens. Matter 24, 424209 (2012).
     *
     ************************************************************************

     Carrying out vdW-DF run using the following parameters:

     Nqs =      20    Nr_points =    1024   r_max =   100.000
     q_mesh =
               0.00001000     0.04494208     0.09755937     0.15916263
               0.23128650     0.31572767     0.41458969     0.53033537
               0.66584808     0.82450364     1.01025438     1.22772762
               1.48234092     1.78043706     2.12944203     2.53805004
               3.01644009     3.57652955     4.23227104     5.00000000

     Gradients computed in reciprocal space

     ************************************************************************


     Starting wfc are  654 randomized atomic wfcs

     total cpu time spent up to now is      122.4 secs

     Self-consistent Calculation

     iteration #  1     ecut=    50.00 Ry     beta=0.70
     Davidson diagonalization with overlap
     ethr =  1.00E-02,  avg # of iterations =  3.0

     Threshold (ethr) on eigenvalues was too large:
     Diagonalizing with lowered threshold

     Davidson diagonalization with overlap
     ethr =  4.29E-04,  avg # of iterations =  2.5

     negative rho (up, down):  1.948E+00 0.000E+00

     total cpu time spent up to now is      553.4 secs

     total energy              =   -7423.00342940 Ry
     Harris-Foulkes estimate   =   -7426.08578394 Ry
     estimated scf accuracy    <       3.80334946 Ry

     iteration #  2     ecut=    50.00 Ry     beta=0.70
     Davidson diagonalization with overlap
     ethr =  4.75E-04,  avg # of iterations = 11.2

     negative rho (up, down):  1.942E+00 0.000E+00

     total cpu time spent up to now is     1275.6 secs

     total energy              =   -7414.91151382 Ry
     Harris-Foulkes estimate   =   -7432.73835377 Ry
     estimated scf accuracy    <      93.32898878 Ry

     iteration #  3     ecut=    50.00 Ry     beta=0.70
     Davidson diagonalization with overlap
     ethr =  4.75E-04,  avg # of iterations =  6.0

     negative rho (up, down):  1.954E+00 0.000E+00

     total cpu time spent up to now is     1721.8 secs

     total energy              =   -7423.98185527 Ry
     Harris-Foulkes estimate   =   -7425.95140976 Ry
     estimated scf accuracy    <       8.63947457 Ry

     iteration #  4     ecut=    50.00 Ry     beta=0.70
     Davidson diagonalization with overlap
     ethr =  4.75E-04,  avg # of iterations =  6.7

     negative rho (up, down):  1.955E+00 0.000E+00

     total cpu time spent up to now is     2003.9 secs

     total energy              =   -7424.64930304 Ry
     Harris-Foulkes estimate   =   -7425.79934699 Ry
     estimated scf accuracy    <       7.43612179 Ry

     iteration #  5     ecut=    50.00 Ry     beta=0.70
     Davidson diagonalization with overlap
     ethr =  4.75E-04,  avg # of iterations =  6.0

     negative rho (up, down):  1.964E+00 0.000E+00

     total cpu time spent up to now is     2270.4 secs

     total energy              =   -7425.14535151 Ry
     Harris-Foulkes estimate   =   -7425.53345188 Ry
     estimated scf accuracy    <       2.75452767 Ry

     iteration #  6     ecut=    50.00 Ry     beta=0.70
     Davidson diagonalization with overlap
     ethr =  3.44E-04,  avg # of iterations =  3.8

     negative rho (up, down):  1.968E+00 0.000E+00

     total cpu time spent up to now is     2502.0 secs

     total energy              =   -7425.28418336 Ry
     Harris-Foulkes estimate   =   -7425.32581301 Ry
     estimated scf accuracy    <       0.12955191 Ry

     iteration #  7     ecut=    50.00 Ry     beta=0.70
     Davidson diagonalization with overlap
     ethr =  1.62E-05,  avg # of iterations = 10.7

     negative rho (up, down):  1.970E+00 0.000E+00

     total cpu time spent up to now is     2883.6 secs

     total energy              =   -7425.27637832 Ry
     Harris-Foulkes estimate   =   -7425.33041432 Ry
     estimated scf accuracy    <       0.29105169 Ry

     iteration #  8     ecut=    50.00 Ry     beta=0.70
     Davidson diagonalization with overlap
     ethr =  1.62E-05,  avg # of iterations =  3.2

     negative rho (up, down):  1.972E+00 0.000E+00

     total cpu time spent up to now is     3114.1 secs

     total energy              =   -7425.29131896 Ry
     Harris-Foulkes estimate   =   -7425.30560242 Ry
     estimated scf accuracy    <       0.05251542 Ry

     iteration #  9     ecut=    50.00 Ry     beta=0.70
     Davidson diagonalization with overlap
     ethr =  6.56E-06,  avg # of iterations =  4.8

     negative rho (up, down):  1.972E+00 0.000E+00

     total cpu time spent up to now is     3368.5 secs

     total energy              =   -7425.28954496 Ry
     Harris-Foulkes estimate   =   -7425.29992132 Ry
     estimated scf accuracy    <       0.03597576 Ry

     iteration # 10     ecut=    50.00 Ry     beta=0.70
     Davidson diagonalization with overlap
     ethr =  4.50E-06,  avg # of iterations =  5.2

     negative rho (up, down):  1.973E+00 0.000E+00

     total cpu time spent up to now is     3617.7 secs

     total energy              =   -7425.29065660 Ry
     Harris-Foulkes estimate   =   -7425.29379943 Ry
     estimated scf accuracy    <       0.01012562 Ry

     iteration # 11     ecut=    50.00 Ry     beta=0.70
     Davidson diagonalization with overlap
     ethr =  1.27E-06,  avg # of iterations =  7.8

     negative rho (up, down):  1.974E+00 0.000E+00

     total cpu time spent up to now is     3901.5 secs

     total energy              =   -7425.29062641 Ry
     Harris-Foulkes estimate   =   -7425.29205293 Ry
     estimated scf accuracy    <       0.00571124 Ry

     iteration # 12     ecut=    50.00 Ry     beta=0.70
     Davidson diagonalization with overlap
     ethr =  7.14E-07,  avg # of iterations =  4.0

     negative rho (up, down):  1.975E+00 0.000E+00

     total cpu time spent up to now is     4130.6 secs

     total energy              =   -7425.28972503 Ry
     Harris-Foulkes estimate   =   -7425.29108924 Ry
     estimated scf accuracy    <       0.00197160 Ry

     iteration # 13     ecut=    50.00 Ry     beta=0.70
     Davidson diagonalization with overlap
     ethr =  2.46E-07,  avg # of iterations =  7.3

     negative rho (up, down):  1.974E+00 0.000E+00

     total cpu time spent up to now is     4466.5 secs

     total energy              =   -7425.28946421 Ry
     Harris-Foulkes estimate   =   -7425.29084934 Ry
     estimated scf accuracy    <       0.00574931 Ry

     iteration # 14     ecut=    50.00 Ry     beta=0.70
     Davidson diagonalization with overlap
     ethr =  2.46E-07,  avg # of iterations =  3.0

     negative rho (up, down):  1.974E+00 0.000E+00

     total cpu time spent up to now is     4717.3 secs

     total energy              =   -7425.29002554 Ry
     Harris-Foulkes estimate   =   -7425.29031314 Ry
     estimated scf accuracy    <       0.00123882 Ry

     iteration # 15     ecut=    50.00 Ry     beta=0.70
     Davidson diagonalization with overlap
     ethr =  1.55E-07,  avg # of iterations =  2.0

     negative rho (up, down):  1.974E+00 0.000E+00

     total cpu time spent up to now is     4934.7 secs

     total energy              =   -7425.29012042 Ry
     Harris-Foulkes estimate   =   -7425.29025389 Ry
     estimated scf accuracy    <       0.00060523 Ry

     iteration # 16     ecut=    50.00 Ry     beta=0.70
     Davidson diagonalization with overlap
     ethr =  7.57E-08,  avg # of iterations =  2.0

     negative rho (up, down):  1.974E+00 0.000E+00

     total cpu time spent up to now is     5145.2 secs

     total energy              =   -7425.29012361 Ry
     Harris-Foulkes estimate   =   -7425.29028102 Ry
     estimated scf accuracy    <       0.00127857 Ry

     iteration # 17     ecut=    50.00 Ry     beta=0.70
     Davidson diagonalization with overlap
     ethr =  7.57E-08,  avg # of iterations =  2.0

     negative rho (up, down):  1.974E+00 0.000E+00

     total cpu time spent up to now is     5365.9 secs

     total energy              =   -7425.29019783 Ry
     Harris-Foulkes estimate   =   -7425.29021275 Ry
     estimated scf accuracy    <       0.00004454 Ry

     iteration # 18     ecut=    50.00 Ry     beta=0.70
     Davidson diagonalization with overlap
     ethr =  5.57E-09,  avg # of iterations =  2.0

     negative rho (up, down):  1.974E+00 0.000E+00

     total cpu time spent up to now is     5584.9 secs

     total energy              =   -7425.29020330 Ry
     Harris-Foulkes estimate   =   -7425.29020913 Ry
     estimated scf accuracy    <       0.00002303 Ry

     iteration # 19     ecut=    50.00 Ry     beta=0.70
     Davidson diagonalization with overlap
     ethr =  2.88E-09,  avg # of iterations =  2.0

     negative rho (up, down):  1.974E+00 0.000E+00

     total cpu time spent up to now is     5802.0 secs

     total energy              =   -7425.29020407 Ry
     Harris-Foulkes estimate   =   -7425.29021007 Ry
     estimated scf accuracy    <       0.00003001 Ry

     iteration # 20     ecut=    50.00 Ry     beta=0.70
     Davidson diagonalization with overlap
     ethr =  2.88E-09,  avg # of iterations =  2.0

     negative rho (up, down):  1.974E+00 0.000E+00

     total cpu time spent up to now is     6018.3 secs

     total energy              =   -7425.29020688 Ry
     Harris-Foulkes estimate   =   -7425.29020769 Ry
     estimated scf accuracy    <       0.00000277 Ry

     iteration # 21     ecut=    50.00 Ry     beta=0.70
     Davidson diagonalization with overlap
     ethr =  3.46E-10,  avg # of iterations =  2.0

     negative rho (up, down):  1.974E+00 0.000E+00

     total cpu time spent up to now is     6254.6 secs

     total energy              =   -7425.29020721 Ry
     Harris-Foulkes estimate   =   -7425.29020780 Ry
     estimated scf accuracy    <       0.00000272 Ry

     iteration # 22     ecut=    50.00 Ry     beta=0.70
     Davidson diagonalization with overlap
     ethr =  3.40E-10,  avg # of iterations =  2.0

     negative rho (up, down):  1.974E+00 0.000E+00

     total cpu time spent up to now is     6475.0 secs

     total energy              =   -7425.29020764 Ry
     Harris-Foulkes estimate   =   -7425.29020770 Ry
     estimated scf accuracy    <       0.00000062 Ry

     iteration # 23     ecut=    50.00 Ry     beta=0.70
     Davidson diagonalization with overlap
     ethr =  7.74E-11,  avg # of iterations =  3.0

     negative rho (up, down):  1.974E+00 0.000E+00

     total cpu time spent up to now is     6703.0 secs

     total energy              =   -7425.29020770 Ry
     Harris-Foulkes estimate   =   -7425.29020774 Ry
     estimated scf accuracy    <       0.00000011 Ry

     iteration # 24     ecut=    50.00 Ry     beta=0.70
     Davidson diagonalization with overlap
     ethr =  1.44E-11,  avg # of iterations =  3.0

     negative rho (up, down):  1.974E+00 0.000E+00

     total cpu time spent up to now is     6957.4 secs

     total energy              =   -7425.29020773 Ry
     Harris-Foulkes estimate   =   -7425.29020776 Ry
     estimated scf accuracy    <       0.00000029 Ry

     iteration # 25     ecut=    50.00 Ry     beta=0.70
     Davidson diagonalization with overlap
     ethr =  1.44E-11,  avg # of iterations =  3.0

     negative rho (up, down):  1.974E+00 0.000E+00

     total cpu time spent up to now is     7189.1 secs

     total energy              =   -7425.29020776 Ry
     Harris-Foulkes estimate   =   -7425.29020777 Ry
     estimated scf accuracy    <       0.00000014 Ry

     iteration # 26     ecut=    50.00 Ry     beta=0.70
     Davidson diagonalization with overlap
     ethr =  1.44E-11,  avg # of iterations =  2.0

     negative rho (up, down):  1.974E+00 0.000E+00

     total cpu time spent up to now is     7401.2 secs

     total energy              =   -7425.29020778 Ry
     Harris-Foulkes estimate   =   -7425.29020778 Ry
     estimated scf accuracy    <       0.00000012 Ry

     iteration # 27     ecut=    50.00 Ry     beta=0.70
     Davidson diagonalization with overlap
     ethr =  1.44E-11,  avg # of iterations =  1.0

     negative rho (up, down):  1.974E+00 0.000E+00

     total cpu time spent up to now is     7610.5 secs

     total energy              =   -7425.29020779 Ry
     Harris-Foulkes estimate   =   -7425.29020779 Ry
     estimated scf accuracy    <       0.00000003 Ry

     iteration # 28     ecut=    50.00 Ry     beta=0.70
     Davidson diagonalization with overlap
     ethr =  3.86E-12,  avg # of iterations =  2.0

     negative rho (up, down):  1.974E+00 0.000E+00

     total cpu time spent up to now is     7825.3 secs

     total energy              =   -7425.29020780 Ry
     Harris-Foulkes estimate   =   -7425.29020779 Ry
     estimated scf accuracy    <       0.00000001 Ry

     iteration # 29     ecut=    50.00 Ry     beta=0.70
     Davidson diagonalization with overlap
     ethr =  1.27E-12,  avg # of iterations =  2.0

     negative rho (up, down):  1.974E+00 0.000E+00

     total cpu time spent up to now is     8039.3 secs

     End of self-consistent calculation

          k = 0.2500 0.2500 0.0833 (167653 PWs)   bands (ev):

   -19.2648  -7.0805  -6.8827  -6.3543  -6.3537  -5.9244  -5.5154  -5.4224
    -5.4219  -5.2262  -5.2261  -5.1086  -5.1077  -5.0297  -5.0067  -4.9337
    -4.8489  -4.8450  -4.8062  -4.8060  -4.6452  -4.6287  -4.6275  -4.6271
    -4.6202  -4.5646  -4.5645  -4.5528  -4.5524  -4.5157  -4.5031  -4.5025
    -4.4609  -4.4608  -4.4274  -4.4261  -4.3743  -4.3737  -4.3630  -4.3622
    -4.3567  -4.3436  -4.3436  -4.3024  -4.2843  -4.2841  -4.2772  -4.2770
    -4.2447  -4.1951  -4.1801  -4.1798  -4.1761  -4.1757  -4.1682  -4.1624
    -4.1621  -4.1620  -4.0972  -4.0963  -4.0473  -4.0466  -4.0345  -4.0085
    -4.0083  -3.9886  -3.9860  -3.9856  -3.9810  -3.9782  -3.9293  -3.9293
    -3.9164  -3.9160  -3.8111  -3.8105  -3.8049  -3.8043  -3.7673  -3.7583
    -3.7434  -3.7140  -3.7139  -3.6855  -3.6850  -3.6636  -3.6632  -3.6499
    -3.6493  -3.5949  -3.5946  -3.5766  -3.5603  -3.5493  -3.5479  -3.5477
    -3.5461  -3.5192  -3.5189  -3.4828  -3.4827  -3.4603  -3.4598  -3.4270
    -3.4266  -3.4085  -3.3813  -3.3811  -3.3439  -3.3436  -3.3084  -3.3008
    -3.3002  -3.2914  -3.2858  -3.2855  -3.2808  -3.2806  -3.2423  -3.2318
    -3.1912  -3.1912  -3.1834  -3.1738  -3.1733  -3.1717  -3.1474  -3.1473
    -3.1262  -3.1256  -3.1252  -3.0985  -3.0984  -3.0909  -3.0881  -3.0880
    -3.0518  -3.0478  -3.0125  -3.0120  -3.0113  -3.0085  -3.0083  -2.9293
    -2.9193  -2.9149  -2.9144  -2.9133  -2.9129  -2.9083  -2.9080  -2.9079
    -2.9076  -2.8982  -2.8903  -2.8732  -2.8706  -2.8700  -2.8695  -2.8549
    -2.8504  -2.8122  -2.8116  -2.8113  -2.8074  -2.8068  -2.7889  -2.7886
    -2.7798  -2.7797  -2.7775  -2.7179  -2.7178  -2.7125  -2.7125  -2.7075
    -2.7072  -2.6791  -2.6202  -2.6187  -2.6186  -2.6166  -2.6054  -2.6031
    -2.5984  -2.5874  -2.5871  -2.5505  -2.5497  -2.5415  -2.5407  -2.5404
    -2.5399  -2.5006  -2.5003  -2.4906  -2.4905  -2.4891  -2.4887  -2.4469
    -2.4310  -2.4254  -2.3721  -2.3718  -2.3534  -2.3517  -2.3466  -2.3463
    -2.2980  -2.2971  -2.2741  -2.2576  -2.2435  -2.2428  -2.2424  -2.2206
    -2.2204  -2.2107  -2.1943  -2.1536  -2.1529  -2.1391  -2.1386  -2.1383
    -2.1277  -2.1274  -2.1122  -2.1119  -2.1117  -2.1075  -2.1027  -2.1019
    -2.1016  -2.0899  -2.0895  -2.0719  -2.0717  -2.0696  -2.0634  -2.0607
    -2.0604  -2.0367  -2.0363  -2.0252  -2.0231  -2.0188  -2.0181  -1.9801
    -1.9463  -1.9458  -1.9105  -1.8933  -1.8930  -1.8826  -1.8818  -1.8590
    -1.8583  -1.8442  -1.8434  -1.8422  -1.8420  -1.8393  -1.8384  -1.8065
    -1.8064  -1.8061  -1.7602  -1.7598  -1.7202  -1.7198  -1.6728  -1.6725
    -1.6603  -1.6377  -1.6328  -1.6299  -1.6138  -1.6117  -1.5947  -1.5941
    -1.5897  -1.5890  -1.5877  -1.5873  -1.5866  -1.5844  -1.5643  -1.5641
    -1.5541  -1.5362  -1.5174  -1.5173  -1.4907  -1.4906  -1.4881  -1.4875
    -1.4851  -1.4817  -1.4607  -1.4596  -1.4458  -1.4443  -1.4322  -1.4215
    -1.4081  -1.4075  -1.3770  -1.3764  -1.3696  -1.3685  -1.3340  -1.3330
    -1.3250  -1.3244  -1.3159  -1.3155  -1.2942  -1.2938  -1.2820  -1.2766
    -1.2752  -1.2740  -1.2619  -1.2615  -1.2611  -1.2575  -1.2467  -1.2361
    -1.2355  -1.2283  -1.2281  -1.2158  -1.2115  -1.2103  -1.2046  -1.1652
    -1.1631  -1.1585  -1.1558  -1.1552  -1.1547  -1.1159  -1.0993  -1.0985
    -1.0984  -1.0980  -1.0939  -1.0933  -1.0887  -1.0759  -1.0733  -1.0371
    -1.0366  -1.0296  -1.0296  -1.0068  -1.0065  -0.9967  -0.9670  -0.9593
    -0.9321  -0.9316  -0.9039  -0.9037  -0.9013  -0.9002  -0.8988  -0.8950
    -0.8914  -0.8897  -0.8852  -0.8848  -0.8530  -0.8527  -0.8352  -0.8338
    -0.8294  -0.8289  -0.8276  -0.8273  -0.8087  -0.5326  -0.5224  -0.4677
    -0.4650  -0.4274  -0.2664  -0.2016  -0.2011  -0.1701   0.1177   0.1179
     0.4467   0.4492   0.5467   0.5469   0.5875   0.5888   0.7309   0.7320
     0.8554   0.8573   0.9435   1.5427   1.5608   1.5617   1.6001   1.6066
     1.6467   1.6538   1.7307   1.7315   1.9384   1.9387   2.1720   2.2520
     2.2551   2.2695   2.6465   2.6529   2.7243   2.7248   2.7310   2.7318
     2.8827   2.8837   2.9268   3.0256   3.0277   3.2591   3.2600   3.3931
     3.4201   3.4207   3.6906   3.6922   3.8033   3.8237   3.8238   3.8669
     3.9059   4.0101   4.0118   4.2471   4.2487   4.3330   4.3369   4.4608
     4.4637   4.4790   4.4871   4.6109   4.8541   5.2736   5.2951   5.3897
     5.3942   5.4626   5.5715   5.5724   5.6052   5.6684   5.6855   5.6886
     5.7064   5.7409   5.7419   5.7850   5.9797   6.0149   6.0534   6.0668
     6.0697   6.0814   6.0847   6.0926   6.0933   6.1091   6.1386   6.1647

          k = 0.2500 0.2500-0.2500 (167588 PWs)   bands (ev):

   -19.2648  -7.0805  -6.8827  -6.3543  -6.3537  -5.9244  -5.5154  -5.4224
    -5.4219  -5.2262  -5.2261  -5.1086  -5.1077  -5.0297  -5.0067  -4.9337
    -4.8489  -4.8450  -4.8062  -4.8060  -4.6452  -4.6288  -4.6275  -4.6271
    -4.6202  -4.5646  -4.5645  -4.5528  -4.5524  -4.5157  -4.5031  -4.5025
    -4.4609  -4.4608  -4.4274  -4.4261  -4.3743  -4.3737  -4.3631  -4.3622
    -4.3567  -4.3436  -4.3436  -4.3024  -4.2843  -4.2841  -4.2772  -4.2770
    -4.2447  -4.1951  -4.1801  -4.1798  -4.1761  -4.1757  -4.1682  -4.1624
    -4.1621  -4.1620  -4.0972  -4.0963  -4.0473  -4.0466  -4.0345  -4.0085
    -4.0083  -3.9886  -3.9860  -3.9856  -3.9810  -3.9782  -3.9293  -3.9293
    -3.9164  -3.9160  -3.8111  -3.8105  -3.8049  -3.8043  -3.7673  -3.7583
    -3.7434  -3.7140  -3.7139  -3.6855  -3.6850  -3.6636  -3.6632  -3.6499
    -3.6493  -3.5949  -3.5946  -3.5766  -3.5603  -3.5493  -3.5479  -3.5477
    -3.5461  -3.5192  -3.5189  -3.4827  -3.4827  -3.4603  -3.4598  -3.4270
    -3.4266  -3.4085  -3.3813  -3.3811  -3.3438  -3.3436  -3.3084  -3.3008
    -3.3002  -3.2914  -3.2858  -3.2855  -3.2808  -3.2806  -3.2423  -3.2318
    -3.1912  -3.1912  -3.1834  -3.1738  -3.1732  -3.1717  -3.1474  -3.1473
    -3.1262  -3.1256  -3.1251  -3.0985  -3.0984  -3.0909  -3.0881  -3.0880
    -3.0518  -3.0478  -3.0125  -3.0120  -3.0113  -3.0085  -3.0083  -2.9293
    -2.9193  -2.9149  -2.9144  -2.9133  -2.9129  -2.9083  -2.9080  -2.9079
    -2.9076  -2.8982  -2.8903  -2.8732  -2.8706  -2.8700  -2.8695  -2.8549
    -2.8504  -2.8122  -2.8116  -2.8113  -2.8074  -2.8068  -2.7889  -2.7886
    -2.7798  -2.7797  -2.7776  -2.7179  -2.7178  -2.7125  -2.7124  -2.7075
    -2.7072  -2.6791  -2.6202  -2.6187  -2.6186  -2.6167  -2.6054  -2.6031
    -2.5984  -2.5874  -2.5871  -2.5505  -2.5497  -2.5415  -2.5407  -2.5404
    -2.5399  -2.5007  -2.5003  -2.4906  -2.4905  -2.4891  -2.4887  -2.4469
    -2.4310  -2.4254  -2.3721  -2.3718  -2.3534  -2.3517  -2.3466  -2.3463
    -2.2980  -2.2971  -2.2741  -2.2576  -2.2435  -2.2428  -2.2424  -2.2206
    -2.2204  -2.2107  -2.1943  -2.1536  -2.1529  -2.1391  -2.1386  -2.1383
    -2.1277  -2.1273  -2.1122  -2.1119  -2.1117  -2.1075  -2.1027  -2.1019
    -2.1016  -2.0899  -2.0895  -2.0719  -2.0717  -2.0697  -2.0635  -2.0607
    -2.0604  -2.0367  -2.0363  -2.0252  -2.0231  -2.0188  -2.0181  -1.9801
    -1.9463  -1.9458  -1.9105  -1.8933  -1.8930  -1.8826  -1.8818  -1.8590
    -1.8583  -1.8442  -1.8434  -1.8422  -1.8420  -1.8393  -1.8384  -1.8065
    -1.8064  -1.8061  -1.7602  -1.7598  -1.7202  -1.7198  -1.6728  -1.6725
    -1.6604  -1.6377  -1.6328  -1.6299  -1.6138  -1.6117  -1.5947  -1.5941
    -1.5897  -1.5890  -1.5877  -1.5873  -1.5866  -1.5844  -1.5643  -1.5641
    -1.5541  -1.5362  -1.5174  -1.5173  -1.4907  -1.4906  -1.4881  -1.4875
    -1.4851  -1.4817  -1.4607  -1.4596  -1.4458  -1.4443  -1.4322  -1.4215
    -1.4081  -1.4075  -1.3770  -1.3764  -1.3696  -1.3685  -1.3340  -1.3330
    -1.3249  -1.3244  -1.3159  -1.3155  -1.2942  -1.2938  -1.2820  -1.2766
    -1.2752  -1.2740  -1.2619  -1.2614  -1.2610  -1.2575  -1.2467  -1.2362
    -1.2355  -1.2283  -1.2281  -1.2158  -1.2115  -1.2103  -1.2046  -1.1652
    -1.1631  -1.1585  -1.1558  -1.1552  -1.1547  -1.1159  -1.0993  -1.0985
    -1.0983  -1.0980  -1.0939  -1.0933  -1.0887  -1.0759  -1.0733  -1.0371
    -1.0366  -1.0296  -1.0296  -1.0068  -1.0065  -0.9967  -0.9670  -0.9593
    -0.9321  -0.9316  -0.9039  -0.9037  -0.9013  -0.9002  -0.8989  -0.8950
    -0.8914  -0.8897  -0.8852  -0.8848  -0.8530  -0.8527  -0.8352  -0.8338
    -0.8294  -0.8289  -0.8276  -0.8273  -0.8087  -0.5326  -0.5224  -0.4676
    -0.4650  -0.4274  -0.2664  -0.2016  -0.2010  -0.1701   0.1177   0.1180
     0.4467   0.4492   0.5467   0.5469   0.5875   0.5888   0.7309   0.7320
     0.8554   0.8573   0.9435   1.5427   1.5608   1.5617   1.6001   1.6066
     1.6467   1.6538   1.7307   1.7315   1.9384   1.9387   2.1720   2.2520
     2.2551   2.2695   2.6465   2.6529   2.7243   2.7248   2.7310   2.7318
     2.8827   2.8837   2.9268   3.0257   3.0277   3.2591   3.2600   3.3931
     3.4201   3.4207   3.6906   3.6922   3.8033   3.8237   3.8238   3.8669
     3.9060   4.0101   4.0118   4.2471   4.2487   4.3330   4.3369   4.4608
     4.4637   4.4790   4.4871   4.6110   4.8514   5.2729   5.2945   5.3892
     5.3936   5.4472   5.5715   5.5725   5.6177   5.6736   5.6865   5.6906
     5.7282   5.7410   5.7418   5.7851   5.9995   6.0238   6.0536   6.0694
     6.0795   6.0844   6.0925   6.0933   6.1024   6.1116   6.1300   6.1616

          k =-0.2500-0.2500 0.0833 (167653 PWs)   bands (ev):

   -19.2648  -7.0805  -6.8827  -6.3543  -6.3537  -5.9244  -5.5154  -5.4224
    -5.4219  -5.2262  -5.2261  -5.1086  -5.1077  -5.0297  -5.0067  -4.9337
    -4.8489  -4.8450  -4.8062  -4.8060  -4.6452  -4.6287  -4.6275  -4.6271
    -4.6202  -4.5646  -4.5645  -4.5528  -4.5524  -4.5157  -4.5031  -4.5025
    -4.4609  -4.4608  -4.4274  -4.4261  -4.3743  -4.3737  -4.3630  -4.3622
    -4.3567  -4.3436  -4.3436  -4.3024  -4.2843  -4.2841  -4.2772  -4.2770
    -4.2447  -4.1951  -4.1801  -4.1798  -4.1761  -4.1757  -4.1682  -4.1624
    -4.1621  -4.1620  -4.0972  -4.0963  -4.0473  -4.0466  -4.0345  -4.0085
    -4.0083  -3.9886  -3.9860  -3.9856  -3.9810  -3.9782  -3.9293  -3.9293
    -3.9164  -3.9160  -3.8111  -3.8105  -3.8049  -3.8043  -3.7673  -3.7583
    -3.7434  -3.7140  -3.7139  -3.6855  -3.6850  -3.6636  -3.6632  -3.6499
    -3.6493  -3.5949  -3.5946  -3.5766  -3.5603  -3.5493  -3.5479  -3.5477
    -3.5461  -3.5192  -3.5189  -3.4828  -3.4827  -3.4603  -3.4598  -3.4270
    -3.4266  -3.4085  -3.3813  -3.3811  -3.3439  -3.3436  -3.3084  -3.3008
    -3.3002  -3.2914  -3.2858  -3.2855  -3.2808  -3.2806  -3.2423  -3.2318
    -3.1912  -3.1912  -3.1834  -3.1738  -3.1733  -3.1717  -3.1474  -3.1473
    -3.1262  -3.1256  -3.1252  -3.0985  -3.0984  -3.0909  -3.0881  -3.0880
    -3.0518  -3.0478  -3.0125  -3.0120  -3.0113  -3.0085  -3.0083  -2.9293
    -2.9193  -2.9149  -2.9144  -2.9133  -2.9129  -2.9083  -2.9080  -2.9079
    -2.9076  -2.8982  -2.8903  -2.8732  -2.8706  -2.8700  -2.8695  -2.8549
    -2.8504  -2.8122  -2.8116  -2.8113  -2.8074  -2.8068  -2.7889  -2.7886
    -2.7798  -2.7797  -2.7775  -2.7179  -2.7178  -2.7125  -2.7125  -2.7075
    -2.7072  -2.6791  -2.6202  -2.6187  -2.6186  -2.6166  -2.6054  -2.6031
    -2.5984  -2.5874  -2.5871  -2.5505  -2.5497  -2.5415  -2.5407  -2.5404
    -2.5399  -2.5006  -2.5003  -2.4906  -2.4905  -2.4891  -2.4887  -2.4469
    -2.4310  -2.4254  -2.3721  -2.3718  -2.3534  -2.3517  -2.3466  -2.3463
    -2.2980  -2.2971  -2.2741  -2.2576  -2.2435  -2.2428  -2.2424  -2.2206
    -2.2204  -2.2107  -2.1943  -2.1536  -2.1529  -2.1391  -2.1386  -2.1383
    -2.1277  -2.1274  -2.1122  -2.1119  -2.1117  -2.1075  -2.1027  -2.1019
    -2.1016  -2.0899  -2.0895  -2.0719  -2.0717  -2.0696  -2.0634  -2.0607
    -2.0604  -2.0367  -2.0363  -2.0252  -2.0231  -2.0188  -2.0181  -1.9801
    -1.9463  -1.9458  -1.9105  -1.8933  -1.8930  -1.8826  -1.8818  -1.8590
    -1.8583  -1.8442  -1.8434  -1.8422  -1.8420  -1.8393  -1.8384  -1.8065
    -1.8064  -1.8061  -1.7602  -1.7598  -1.7202  -1.7198  -1.6728  -1.6725
    -1.6603  -1.6377  -1.6328  -1.6299  -1.6138  -1.6117  -1.5947  -1.5941
    -1.5897  -1.5890  -1.5877  -1.5873  -1.5866  -1.5844  -1.5643  -1.5641
    -1.5541  -1.5362  -1.5174  -1.5173  -1.4907  -1.4906  -1.4881  -1.4875
    -1.4851  -1.4817  -1.4607  -1.4596  -1.4458  -1.4443  -1.4322  -1.4215
    -1.4081  -1.4075  -1.3770  -1.3764  -1.3696  -1.3685  -1.3340  -1.3330
    -1.3250  -1.3244  -1.3159  -1.3155  -1.2942  -1.2938  -1.2820  -1.2766
    -1.2752  -1.2740  -1.2619  -1.2615  -1.2611  -1.2575  -1.2467  -1.2361
    -1.2355  -1.2283  -1.2281  -1.2158  -1.2115  -1.2103  -1.2046  -1.1652
    -1.1631  -1.1585  -1.1558  -1.1552  -1.1547  -1.1159  -1.0993  -1.0985
    -1.0984  -1.0980  -1.0939  -1.0933  -1.0887  -1.0759  -1.0733  -1.0371
    -1.0366  -1.0296  -1.0296  -1.0068  -1.0065  -0.9967  -0.9670  -0.9593
    -0.9321  -0.9316  -0.9039  -0.9037  -0.9013  -0.9002  -0.8988  -0.8950
    -0.8914  -0.8897  -0.8852  -0.8848  -0.8530  -0.8527  -0.8352  -0.8338
    -0.8294  -0.8289  -0.8276  -0.8273  -0.8087  -0.5326  -0.5224  -0.4677
    -0.4650  -0.4274  -0.2664  -0.2016  -0.2011  -0.1701   0.1177   0.1179
     0.4467   0.4492   0.5467   0.5469   0.5875   0.5888   0.7309   0.7320
     0.8554   0.8573   0.9435   1.5427   1.5608   1.5617   1.6001   1.6066
     1.6467   1.6538   1.7307   1.7315   1.9384   1.9387   2.1720   2.2520
     2.2551   2.2695   2.6465   2.6529   2.7243   2.7248   2.7310   2.7318
     2.8827   2.8837   2.9268   3.0256   3.0277   3.2591   3.2600   3.3931
     3.4201   3.4207   3.6906   3.6922   3.8033   3.8237   3.8238   3.8669
     3.9059   4.0101   4.0118   4.2471   4.2487   4.3330   4.3369   4.4608
     4.4637   4.4790   4.4871   4.6110   4.8541   5.2738   5.2953   5.3898
     5.3941   5.4599   5.5715   5.5725   5.6073   5.6702   5.6855   5.6887
     5.7071   5.7409   5.7419   5.7849   5.9803   6.0149   6.0533   6.0647
     6.0698   6.0816   6.0847   6.0926   6.0933   6.1068   6.1383   6.1636

          k =-0.2500 0.2500-0.0833 (167653 PWs)   bands (ev):

   -19.2648  -7.0805  -6.8827  -6.3542  -6.3538  -5.9244  -5.5154  -5.4223
    -5.4219  -5.2262  -5.2261  -5.1085  -5.1078  -5.0297  -5.0067  -4.9337
    -4.8489  -4.8450  -4.8062  -4.8061  -4.6452  -4.6287  -4.6275  -4.6272
    -4.6202  -4.5646  -4.5645  -4.5527  -4.5524  -4.5157  -4.5031  -4.5026
    -4.4609  -4.4608  -4.4274  -4.4261  -4.3743  -4.3738  -4.3630  -4.3622
    -4.3567  -4.3436  -4.3436  -4.3024  -4.2843  -4.2841  -4.2772  -4.2770
    -4.2447  -4.1951  -4.1801  -4.1798  -4.1761  -4.1757  -4.1682  -4.1624
    -4.1621  -4.1620  -4.0971  -4.0965  -4.0471  -4.0468  -4.0345  -4.0085
    -4.0084  -3.9886  -3.9861  -3.9856  -3.9810  -3.9782  -3.9293  -3.9293
    -3.9163  -3.9160  -3.8110  -3.8106  -3.8048  -3.8044  -3.7673  -3.7583
    -3.7434  -3.7140  -3.7140  -3.6854  -3.6851  -3.6635  -3.6633  -3.6498
    -3.6494  -3.5949  -3.5947  -3.5766  -3.5603  -3.5492  -3.5479  -3.5477
    -3.5461  -3.5192  -3.5189  -3.4827  -3.4827  -3.4602  -3.4599  -3.4270
    -3.4267  -3.4085  -3.3812  -3.3811  -3.3438  -3.3436  -3.3085  -3.3008
    -3.3001  -3.2920  -3.2859  -3.2847  -3.2808  -3.2806  -3.2423  -3.2318
    -3.1913  -3.1912  -3.1834  -3.1739  -3.1732  -3.1717  -3.1473  -3.1473
    -3.1261  -3.1256  -3.1252  -3.0985  -3.0984  -3.0909  -3.0881  -3.0880
    -3.0518  -3.0478  -3.0124  -3.0121  -3.0113  -3.0084  -3.0083  -2.9293
    -2.9193  -2.9149  -2.9145  -2.9132  -2.9130  -2.9083  -2.9080  -2.9079
    -2.9077  -2.8982  -2.8903  -2.8732  -2.8706  -2.8699  -2.8696  -2.8549
    -2.8504  -2.8122  -2.8116  -2.8113  -2.8074  -2.8069  -2.7889  -2.7886
    -2.7798  -2.7797  -2.7776  -2.7179  -2.7178  -2.7125  -2.7124  -2.7074
    -2.7073  -2.6791  -2.6202  -2.6188  -2.6185  -2.6167  -2.6054  -2.6031
    -2.5984  -2.5874  -2.5872  -2.5504  -2.5498  -2.5414  -2.5407  -2.5404
    -2.5400  -2.5006  -2.5003  -2.4906  -2.4905  -2.4890  -2.4887  -2.4469
    -2.4310  -2.4254  -2.3721  -2.3719  -2.3534  -2.3516  -2.3465  -2.3464
    -2.2979  -2.2972  -2.2741  -2.2576  -2.2435  -2.2428  -2.2424  -2.2206
    -2.2204  -2.2107  -2.1943  -2.1535  -2.1530  -2.1391  -2.1386  -2.1384
    -2.1276  -2.1274  -2.1121  -2.1120  -2.1117  -2.1075  -2.1027  -2.1019
    -2.1017  -2.0899  -2.0896  -2.0719  -2.0717  -2.0697  -2.0634  -2.0607
    -2.0604  -2.0367  -2.0364  -2.0252  -2.0231  -2.0187  -2.0182  -1.9801
    -1.9463  -1.9458  -1.9105  -1.8933  -1.8930  -1.8825  -1.8820  -1.8588
    -1.8584  -1.8440  -1.8436  -1.8421  -1.8421  -1.8391  -1.8386  -1.8065
    -1.8064  -1.8061  -1.7602  -1.7598  -1.7201  -1.7198  -1.6727  -1.6725
    -1.6604  -1.6377  -1.6328  -1.6299  -1.6138  -1.6117  -1.5947  -1.5941
    -1.5896  -1.5890  -1.5876  -1.5873  -1.5867  -1.5844  -1.5643  -1.5641
    -1.5541  -1.5362  -1.5173  -1.5173  -1.4907  -1.4906  -1.4880  -1.4875
    -1.4853  -1.4817  -1.4606  -1.4597  -1.4456  -1.4444  -1.4322  -1.4215
    -1.4081  -1.4076  -1.3768  -1.3765  -1.3695  -1.3686  -1.3338  -1.3329
    -1.3249  -1.3244  -1.3163  -1.3156  -1.2942  -1.2939  -1.2820  -1.2785
    -1.2751  -1.2733  -1.2619  -1.2614  -1.2611  -1.2564  -1.2467  -1.2364
    -1.2353  -1.2283  -1.2281  -1.2154  -1.2115  -1.2102  -1.2046  -1.1651
    -1.1633  -1.1585  -1.1558  -1.1552  -1.1548  -1.1159  -1.0993  -1.0986
    -1.0984  -1.0980  -1.0939  -1.0931  -1.0887  -1.0761  -1.0733  -1.0370
    -1.0366  -1.0296  -1.0296  -1.0067  -1.0066  -0.9967  -0.9670  -0.9593
    -0.9321  -0.9317  -0.9039  -0.9037  -0.9013  -0.9002  -0.8988  -0.8950
    -0.8914  -0.8897  -0.8852  -0.8849  -0.8530  -0.8527  -0.8349  -0.8340
    -0.8294  -0.8290  -0.8276  -0.8273  -0.8087  -0.5326  -0.5224  -0.4673
    -0.4654  -0.4274  -0.2665  -0.2016  -0.2011  -0.1700   0.1176   0.1180
     0.4470   0.4489   0.5467   0.5469   0.5877   0.5886   0.7308   0.7321
     0.8554   0.8573   0.9435   1.5428   1.5608   1.5618   1.6003   1.6066
     1.6477   1.6526   1.7305   1.7316   1.9383   1.9388   2.1721   2.2525
     2.2547   2.2695   2.6475   2.6520   2.7244   2.7247   2.7311   2.7317
     2.8827   2.8837   2.9270   3.0250   3.0277   3.2591   3.2594   3.3932
     3.4200   3.4209   3.6903   3.6924   3.8038   3.8237   3.8238   3.8724
     3.9008   4.0103   4.0115   4.2469   4.2488   4.3343   4.3363   4.4609
     4.4635   4.4805   4.4861   4.6028   4.8622   5.2709   5.3009   5.3893
     5.3923   5.4796   5.5709   5.5729   5.6087   5.6545   5.6826   5.6892
     5.6968   5.7408   5.7416   5.7850   5.9881   5.9928   6.0513   6.0670
     6.0726   6.0816   6.0838   6.0931   6.0933   6.1141   6.1400   6.1620

          k = 0.2500-0.2500-0.0833 (167653 PWs)   bands (ev):

   -19.2648  -7.0805  -6.8827  -6.3542  -6.3538  -5.9244  -5.5154  -5.4223
    -5.4219  -5.2262  -5.2261  -5.1085  -5.1078  -5.0297  -5.0067  -4.9337
    -4.8489  -4.8450  -4.8062  -4.8061  -4.6452  -4.6287  -4.6275  -4.6272
    -4.6202  -4.5646  -4.5645  -4.5527  -4.5524  -4.5157  -4.5031  -4.5026
    -4.4609  -4.4608  -4.4274  -4.4261  -4.3743  -4.3738  -4.3630  -4.3622
    -4.3567  -4.3436  -4.3436  -4.3024  -4.2843  -4.2841  -4.2772  -4.2770
    -4.2447  -4.1951  -4.1801  -4.1798  -4.1761  -4.1757  -4.1682  -4.1624
    -4.1621  -4.1620  -4.0971  -4.0965  -4.0471  -4.0468  -4.0345  -4.0085
    -4.0084  -3.9886  -3.9861  -3.9856  -3.9810  -3.9782  -3.9293  -3.9293
    -3.9163  -3.9160  -3.8110  -3.8106  -3.8048  -3.8044  -3.7673  -3.7583
    -3.7434  -3.7140  -3.7140  -3.6854  -3.6851  -3.6635  -3.6633  -3.6498
    -3.6494  -3.5949  -3.5947  -3.5766  -3.5603  -3.5492  -3.5479  -3.5477
    -3.5461  -3.5192  -3.5189  -3.4827  -3.4827  -3.4602  -3.4599  -3.4270
    -3.4267  -3.4085  -3.3812  -3.3811  -3.3438  -3.3436  -3.3085  -3.3008
    -3.3001  -3.2920  -3.2859  -3.2847  -3.2808  -3.2806  -3.2423  -3.2318
    -3.1913  -3.1912  -3.1834  -3.1739  -3.1732  -3.1717  -3.1473  -3.1473
    -3.1261  -3.1256  -3.1252  -3.0985  -3.0984  -3.0909  -3.0881  -3.0880
    -3.0518  -3.0478  -3.0124  -3.0121  -3.0113  -3.0084  -3.0083  -2.9293
    -2.9193  -2.9149  -2.9145  -2.9132  -2.9130  -2.9083  -2.9080  -2.9079
    -2.9077  -2.8982  -2.8903  -2.8732  -2.8706  -2.8699  -2.8696  -2.8549
    -2.8504  -2.8122  -2.8116  -2.8113  -2.8074  -2.8069  -2.7889  -2.7886
    -2.7798  -2.7797  -2.7776  -2.7179  -2.7178  -2.7125  -2.7124  -2.7074
    -2.7073  -2.6791  -2.6202  -2.6188  -2.6185  -2.6167  -2.6054  -2.6031
    -2.5984  -2.5874  -2.5872  -2.5504  -2.5498  -2.5414  -2.5407  -2.5404
    -2.5400  -2.5006  -2.5003  -2.4906  -2.4905  -2.4890  -2.4887  -2.4469
    -2.4310  -2.4254  -2.3721  -2.3719  -2.3534  -2.3516  -2.3465  -2.3464
    -2.2979  -2.2972  -2.2741  -2.2576  -2.2435  -2.2428  -2.2424  -2.2206
    -2.2204  -2.2107  -2.1943  -2.1535  -2.1530  -2.1391  -2.1386  -2.1384
    -2.1276  -2.1274  -2.1121  -2.1120  -2.1117  -2.1075  -2.1027  -2.1019
    -2.1017  -2.0899  -2.0896  -2.0719  -2.0717  -2.0697  -2.0634  -2.0607
    -2.0604  -2.0367  -2.0364  -2.0252  -2.0231  -2.0187  -2.0182  -1.9801
    -1.9463  -1.9458  -1.9105  -1.8933  -1.8930  -1.8825  -1.8820  -1.8588
    -1.8584  -1.8440  -1.8436  -1.8421  -1.8421  -1.8391  -1.8386  -1.8065
    -1.8064  -1.8061  -1.7602  -1.7598  -1.7201  -1.7198  -1.6727  -1.6725
    -1.6604  -1.6377  -1.6328  -1.6299  -1.6138  -1.6117  -1.5947  -1.5941
    -1.5896  -1.5890  -1.5876  -1.5873  -1.5867  -1.5844  -1.5643  -1.5641
    -1.5541  -1.5362  -1.5173  -1.5173  -1.4907  -1.4906  -1.4880  -1.4875
    -1.4853  -1.4817  -1.4606  -1.4597  -1.4456  -1.4444  -1.4322  -1.4215
    -1.4081  -1.4076  -1.3768  -1.3765  -1.3695  -1.3686  -1.3338  -1.3329
    -1.3249  -1.3244  -1.3163  -1.3156  -1.2942  -1.2939  -1.2820  -1.2785
    -1.2751  -1.2733  -1.2619  -1.2614  -1.2611  -1.2564  -1.2467  -1.2364
    -1.2353  -1.2283  -1.2281  -1.2154  -1.2115  -1.2102  -1.2046  -1.1651
    -1.1633  -1.1585  -1.1558  -1.1552  -1.1548  -1.1159  -1.0993  -1.0986
    -1.0984  -1.0980  -1.0939  -1.0931  -1.0887  -1.0761  -1.0733  -1.0370
    -1.0366  -1.0296  -1.0296  -1.0067  -1.0066  -0.9967  -0.9670  -0.9593
    -0.9321  -0.9317  -0.9039  -0.9037  -0.9013  -0.9002  -0.8988  -0.8950
    -0.8914  -0.8897  -0.8852  -0.8849  -0.8530  -0.8527  -0.8349  -0.8340
    -0.8294  -0.8290  -0.8276  -0.8273  -0.8087  -0.5326  -0.5224  -0.4673
    -0.4654  -0.4274  -0.2665  -0.2016  -0.2011  -0.1700   0.1176   0.1180
     0.4470   0.4489   0.5467   0.5469   0.5877   0.5886   0.7308   0.7321
     0.8554   0.8573   0.9435   1.5428   1.5608   1.5618   1.6003   1.6066
     1.6477   1.6526   1.7305   1.7316   1.9383   1.9388   2.1721   2.2525
     2.2547   2.2695   2.6475   2.6520   2.7244   2.7247   2.7311   2.7317
     2.8827   2.8837   2.9270   3.0250   3.0277   3.2591   3.2594   3.3932
     3.4200   3.4209   3.6903   3.6924   3.8038   3.8237   3.8238   3.8724
     3.9008   4.0103   4.0115   4.2469   4.2488   4.3343   4.3363   4.4609
     4.4635   4.4805   4.4861   4.6028   4.8622   5.2708   5.3012   5.3894
     5.3923   5.4794   5.5709   5.5729   5.6063   5.6549   5.6837   5.6890
     5.6983   5.7408   5.7416   5.7850   5.9894   5.9936   6.0512   6.0667
     6.0720   6.0815   6.0838   6.0932   6.0933   6.1138   6.1389   6.1601

          k =-0.2500 0.2500 0.2500 (167588 PWs)   bands (ev):

   -19.2648  -7.0805  -6.8827  -6.3542  -6.3538  -5.9244  -5.5154  -5.4223
    -5.4219  -5.2262  -5.2261  -5.1085  -5.1078  -5.0297  -5.0067  -4.9337
    -4.8489  -4.8450  -4.8062  -4.8061  -4.6452  -4.6287  -4.6275  -4.6272
    -4.6202  -4.5646  -4.5645  -4.5527  -4.5524  -4.5157  -4.5031  -4.5026
    -4.4609  -4.4608  -4.4274  -4.4261  -4.3743  -4.3738  -4.3630  -4.3622
    -4.3567  -4.3436  -4.3436  -4.3024  -4.2843  -4.2841  -4.2772  -4.2770
    -4.2447  -4.1951  -4.1801  -4.1798  -4.1761  -4.1757  -4.1682  -4.1624
    -4.1621  -4.1620  -4.0971  -4.0965  -4.0471  -4.0468  -4.0345  -4.0085
    -4.0083  -3.9886  -3.9861  -3.9856  -3.9810  -3.9782  -3.9293  -3.9293
    -3.9163  -3.9160  -3.8110  -3.8106  -3.8048  -3.8044  -3.7673  -3.7583
    -3.7434  -3.7140  -3.7140  -3.6854  -3.6851  -3.6635  -3.6633  -3.6498
    -3.6494  -3.5949  -3.5947  -3.5766  -3.5603  -3.5492  -3.5479  -3.5477
    -3.5461  -3.5192  -3.5189  -3.4827  -3.4827  -3.4602  -3.4599  -3.4269
    -3.4267  -3.4085  -3.3812  -3.3811  -3.3438  -3.3436  -3.3085  -3.3008
    -3.3001  -3.2920  -3.2859  -3.2847  -3.2808  -3.2806  -3.2423  -3.2318
    -3.1913  -3.1912  -3.1834  -3.1739  -3.1731  -3.1717  -3.1473  -3.1473
    -3.1261  -3.1256  -3.1252  -3.0985  -3.0984  -3.0909  -3.0881  -3.0880
    -3.0518  -3.0478  -3.0124  -3.0121  -3.0113  -3.0084  -3.0083  -2.9293
    -2.9193  -2.9149  -2.9145  -2.9132  -2.9130  -2.9083  -2.9080  -2.9079
    -2.9076  -2.8982  -2.8903  -2.8732  -2.8706  -2.8699  -2.8696  -2.8549
    -2.8504  -2.8122  -2.8115  -2.8113  -2.8073  -2.8069  -2.7889  -2.7886
    -2.7798  -2.7797  -2.7776  -2.7179  -2.7178  -2.7125  -2.7124  -2.7074
    -2.7073  -2.6792  -2.6202  -2.6188  -2.6185  -2.6167  -2.6054  -2.6031
    -2.5984  -2.5874  -2.5872  -2.5504  -2.5498  -2.5414  -2.5407  -2.5404
    -2.5400  -2.5006  -2.5003  -2.4906  -2.4905  -2.4890  -2.4887  -2.4469
    -2.4310  -2.4254  -2.3721  -2.3719  -2.3534  -2.3516  -2.3465  -2.3464
    -2.2979  -2.2972  -2.2741  -2.2576  -2.2435  -2.2428  -2.2424  -2.2206
    -2.2204  -2.2107  -2.1943  -2.1535  -2.1530  -2.1391  -2.1386  -2.1384
    -2.1276  -2.1274  -2.1121  -2.1120  -2.1117  -2.1075  -2.1027  -2.1019
    -2.1017  -2.0899  -2.0896  -2.0719  -2.0717  -2.0697  -2.0635  -2.0607
    -2.0604  -2.0367  -2.0364  -2.0252  -2.0231  -2.0187  -2.0182  -1.9801
    -1.9463  -1.9458  -1.9105  -1.8933  -1.8930  -1.8825  -1.8820  -1.8588
    -1.8584  -1.8440  -1.8436  -1.8421  -1.8421  -1.8391  -1.8386  -1.8065
    -1.8064  -1.8061  -1.7602  -1.7598  -1.7202  -1.7198  -1.6727  -1.6725
    -1.6604  -1.6377  -1.6328  -1.6299  -1.6138  -1.6117  -1.5947  -1.5941
    -1.5896  -1.5890  -1.5876  -1.5873  -1.5867  -1.5844  -1.5643  -1.5641
    -1.5541  -1.5362  -1.5173  -1.5173  -1.4907  -1.4906  -1.4880  -1.4875
    -1.4853  -1.4817  -1.4606  -1.4597  -1.4456  -1.4444  -1.4322  -1.4215
    -1.4081  -1.4076  -1.3768  -1.3765  -1.3695  -1.3686  -1.3338  -1.3329
    -1.3248  -1.3244  -1.3163  -1.3156  -1.2942  -1.2938  -1.2820  -1.2785
    -1.2751  -1.2733  -1.2619  -1.2614  -1.2611  -1.2563  -1.2467  -1.2364
    -1.2353  -1.2283  -1.2281  -1.2154  -1.2115  -1.2102  -1.2046  -1.1652
    -1.1633  -1.1585  -1.1558  -1.1552  -1.1548  -1.1159  -1.0992  -1.0986
    -1.0984  -1.0980  -1.0939  -1.0931  -1.0887  -1.0761  -1.0733  -1.0370
    -1.0366  -1.0296  -1.0296  -1.0067  -1.0066  -0.9967  -0.9670  -0.9593
    -0.9320  -0.9317  -0.9039  -0.9037  -0.9013  -0.9003  -0.8989  -0.8950
    -0.8914  -0.8897  -0.8852  -0.8849  -0.8530  -0.8527  -0.8350  -0.8340
    -0.8294  -0.8290  -0.8276  -0.8273  -0.8087  -0.5326  -0.5224  -0.4673
    -0.4654  -0.4274  -0.2664  -0.2016  -0.2011  -0.1700   0.1176   0.1180
     0.4470   0.4489   0.5467   0.5469   0.5877   0.5886   0.7308   0.7321
     0.8554   0.8573   0.9435   1.5428   1.5608   1.5618   1.6003   1.6066
     1.6477   1.6526   1.7305   1.7316   1.9383   1.9388   2.1721   2.2525
     2.2547   2.2695   2.6475   2.6520   2.7244   2.7247   2.7311   2.7317
     2.8827   2.8837   2.9270   3.0250   3.0277   3.2591   3.2594   3.3932
     3.4200   3.4209   3.6903   3.6924   3.8038   3.8237   3.8238   3.8725
     3.9008   4.0103   4.0115   4.2469   4.2488   4.3343   4.3363   4.4608
     4.4635   4.4804   4.4861   4.6028   4.8595   5.2708   5.2987   5.3889
     5.3921   5.4678   5.5709   5.5729   5.6107   5.6478   5.6876   5.6892
     5.7382   5.7408   5.7417   5.7851   5.9940   6.0152   6.0521   6.0696
     6.0795   6.0833   6.0927   6.0933   6.0967   6.1195   6.1377   6.1752

     the Fermi energy is     0.8058 ev

!    total energy              =   -7425.29020780 Ry
     Harris-Foulkes estimate   =   -7425.29020780 Ry
     estimated scf accuracy    <          3.2E-09 Ry

     The total energy is the sum of the following terms:

     one-electron contribution =  -48413.95645461 Ry
     hartree contribution      =   24756.13160856 Ry
     xc contribution           =   -3604.19545709 Ry
     ewald contribution        =   19836.73301498 Ry
     smearing contrib. (-TS)   =      -0.00291963 Ry

     convergence has been achieved in  29 iterations

     Writing output data file 5908931.save

     init_run     :    111.61s CPU    120.13s WALL (       1 calls)
     electrons    :   7379.79s CPU   7917.43s WALL (       1 calls)

     Called by init_run:
     wfcinit      :     75.70s CPU     83.33s WALL (       1 calls)
     potinit      :      7.43s CPU      7.91s WALL (       1 calls)

     Called by electrons:
     c_bands      :   5543.01s CPU   5970.14s WALL (      30 calls)
     sum_band     :   1148.64s CPU   1236.59s WALL (      30 calls)
     v_of_rho     :    143.98s CPU    158.22s WALL (      30 calls)
     newd         :    560.06s CPU    567.66s WALL (      30 calls)
     mix_rho      :      4.04s CPU      4.55s WALL (      30 calls)
     vdW_energy   :     12.52s CPU     14.09s WALL (      30 calls)
     vdW_ffts     :     73.26s CPU     80.52s WALL (      60 calls)
     vdW_v        :     17.72s CPU     18.86s WALL (      30 calls)

     Called by c_bands:
     init_us_2    :     18.52s CPU     18.92s WALL (     366 calls)
     cegterg      :   5437.30s CPU   5863.23s WALL (     180 calls)

     Called by *egterg:
     h_psi        :   2337.32s CPU   2726.13s WALL (     889 calls)
     s_psi        :    381.15s CPU    383.20s WALL (     889 calls)
     g_psi        :      4.77s CPU      4.77s WALL (     703 calls)
     cdiaghg      :   1491.51s CPU   1496.03s WALL (     877 calls)

     Called by h_psi:
     add_vuspsi   :    386.04s CPU    388.12s WALL (     889 calls)

     General routines
     calbec       :    560.12s CPU    563.05s WALL (    1069 calls)
     fft          :    177.37s CPU    189.57s WALL (    1980 calls)
     ffts         :      1.86s CPU      2.28s WALL (      60 calls)
     fftw         :   1513.57s CPU   1877.63s WALL (  479686 calls)
     interpolate  :      5.58s CPU      6.52s WALL (      60 calls)
     davcio       :      0.00s CPU      0.20s WALL (       6 calls)

     Parallel routines
     fft_scatter  :   1061.80s CPU   1308.20s WALL (  481726 calls)

     PWSCF        :     2h 4m CPU        2h14m WALL


   This run was terminated on:  23:15:21   5Jul2015            

=------------------------------------------------------------------------------=
   JOB DONE.
=------------------------------------------------------------------------------=
