Setting SGE environment for SCC

     Program PWSCF v.5.1.2 starts on  2Jul2015 at 23:30:30 

     This program is part of the open-source Quantum ESPRESSO suite
     for quantum simulation of materials; please cite
         "P. Giannozzi et al., J. Phys.:Condens. Matter 21 395502 (2009);
          URL http://www.quantum-espresso.org", 
     in publications or presentations arising from this work. More details at
     http://www.quantum-espresso.org/quote

     Parallel version (MPI), running on    32 processors
     R & G space division:  proc/nbgrp/npool/nimage =      32
     Reading input from hollow.O1.Au5859.d.2.5.phi.0.psi.0.in
Warning: card &IONS ignored
Warning: card / ignored
Warning: card &CELL ignored
Warning: card / ignored

     Current dimensions of program PWSCF are:
     Max number of different atomic species (ntypx) = 10
     Max number of k-points (npk) =  40000
     Max angular momentum in pseudopotentials (lmaxx) =  3

     IMPORTANT: XC functional enforced from input :
     Exchange-correlation      = VDW-DF ( 1  4  4  0 1 0)
     Any further DFT definition will be discarded
     Please, verify this is what you really want


     Subspace diagonalization in iterative solution of the eigenvalue problem:
     a serial algorithm will be used


     Parallelization info
     --------------------
     sticks:   dense  smooth     PW     G-vecs:    dense   smooth      PW
     Min         578     289     74               118518    41891    5486
     Max         579     290     75               118533    41932    5497
     Sum       18505    9265   2385              3792731  1341081  175711


     Title: 
     hollow.O1.Au5859.d.2.5.phi.0.psi.0                                         


     bravais-lattice index     =            8
     lattice parameter (alat)  =      24.1233  a.u.
     unit-cell volume          =   28076.2361 (a.u.)^3
     number of atoms/cell      =           75
     number of atomic types    =            3
     number of electrons       =       800.00
     number of Kohn-Sham states=          480
     kinetic-energy cutoff     =      50.0000  Ry
     charge density cutoff     =     400.0000  Ry
     convergence threshold     =      1.0E-08
     mixing beta               =       0.7000
     number of iterations used =            8  plain     mixing
     Exchange-correlation      = VDW-DF ( 1  4  4  0 1 0)

     celldm(1)=  24.123277  celldm(2)=   1.000000  celldm(3)=   2.000000
     celldm(4)=   0.000000  celldm(5)=   0.000000  celldm(6)=   0.000000

     crystal axes: (cart. coord. in units of alat)
               a(1) = (   1.000000   0.000000   0.000000 )  
               a(2) = (   0.000000   1.000000   0.000000 )  
               a(3) = (   0.000000   0.000000   2.000000 )  

     reciprocal axes: (cart. coord. in units 2 pi/alat)
               b(1) = (  1.000000  0.000000  0.000000 )  
               b(2) = (  0.000000  1.000000  0.000000 )  
               b(3) = (  0.000000  0.000000  0.500000 )  


     PseudoPot. # 1 for Au read from file:
     /home/scc/andrejb/qe/pseudo/Au.pbe-nd-van.UPF
     MD5 check sum: 458681b50f36d87ef23c61b04bba420a
     Pseudo is Ultrasoft + core correction, Zval = 11.0
     Generated by new atomic code, or converted to UPF format
     Using radial grid of  985 points,  3 beta functions with: 
                l(1) =   1
                l(2) =   2
                l(3) =   2
     Q(r) pseudized with  8 coefficients,  rinner =    1.100   1.100   1.100
                                                       1.100   1.100

     PseudoPot. # 2 for H  read from file:
     /home/scc/andrejb/qe/pseudo/H.pbe-van_ak.UPF
     MD5 check sum: 403db7282739603aa925980fa9b8608d
     Pseudo is Ultrasoft, Zval =  1.0
     Generated by new atomic code, or converted to UPF format
     Using radial grid of  615 points,  1 beta functions with: 
                l(1) =   0
     Q(r) pseudized with  8 coefficients,  rinner =    0.800

     PseudoPot. # 3 for O  read from file:
     /home/scc/andrejb/qe/pseudo/O.pbe-van_ak.UPF
     MD5 check sum: 4b8c549914a63cae506c6ff22b5af4fe
     Pseudo is Ultrasoft, Zval =  6.0
     Generated by new atomic code, or converted to UPF format
     Using radial grid of  737 points,  4 beta functions with: 
                l(1) =   0
                l(2) =   0
                l(3) =   1
                l(4) =   1
     Q(r) pseudized with  8 coefficients,  rinner =    0.800   0.800   0.800


     vdW kernel table read from file vdW_kernel_table
     MD5 check sum: 48e77a2e26edf626eeb0eaa751ad5cac

     atomic species   valence    mass     pseudopotential
        Au            11.00   196.96657     Au( 1.00)
        H              1.00     1.01000     H ( 1.00)
        O              6.00    16.00000     O ( 1.00)

     No symmetry found



   Cartesian axes

     site n.     atom                  positions (alat units)
         1           O   tau(   1) = (   0.1666051   0.1666105   0.6951546  )
         2           H   tau(   2) = (   0.1195275   0.1274390   0.7406485  )
         3           H   tau(   3) = (   0.2122554   0.2046122   0.7430122  )
         4           Au  tau(   4) = (   0.0000000   0.0000000   0.0000000  )
         5           Au  tau(   5) = (   0.3332217   0.0000000   0.0000000  )
         6           Au  tau(   6) = (   0.6664434   0.0000000   0.0000000  )
         7           Au  tau(   7) = (   0.1666109   0.1666109   0.0000000  )
         8           Au  tau(   8) = (   0.4998326   0.1666109   0.0000000  )
         9           Au  tau(   9) = (   0.8330542   0.1666109   0.0000000  )
        10           Au  tau(  10) = (   0.0000000   0.3332217   0.0000000  )
        11           Au  tau(  11) = (   0.3332217   0.3332217   0.0000000  )
        12           Au  tau(  12) = (   0.6664434   0.3332217   0.0000000  )
        13           Au  tau(  13) = (   0.1666109   0.4998326   0.0000000  )
        14           Au  tau(  14) = (   0.4998326   0.4998326   0.0000000  )
        15           Au  tau(  15) = (   0.8330542   0.4998326   0.0000000  )
        16           Au  tau(  16) = (   0.0000000   0.6664434   0.0000000  )
        17           Au  tau(  17) = (   0.3332217   0.6664434   0.0000000  )
        18           Au  tau(  18) = (   0.6664434   0.6664434   0.0000000  )
        19           Au  tau(  19) = (   0.1666109   0.8330542   0.0000000  )
        20           Au  tau(  20) = (   0.4998326   0.8330542   0.0000000  )
        21           Au  tau(  21) = (   0.8330542   0.8330542   0.0000000  )
        22           Au  tau(  22) = (   0.1666109   0.0000000   0.1666109  )
        23           Au  tau(  23) = (   0.4998326   0.0000000   0.1666109  )
        24           Au  tau(  24) = (   0.8330542   0.0000000   0.1666109  )
        25           Au  tau(  25) = (   0.0000000   0.1666109   0.1666109  )
        26           Au  tau(  26) = (   0.3332217   0.1666109   0.1666109  )
        27           Au  tau(  27) = (   0.6664434   0.1666109   0.1666109  )
        28           Au  tau(  28) = (   0.1666109   0.3332217   0.1666109  )
        29           Au  tau(  29) = (   0.4998326   0.3332217   0.1666109  )
        30           Au  tau(  30) = (   0.8330542   0.3332217   0.1666109  )
        31           Au  tau(  31) = (   0.0000000   0.4998326   0.1666109  )
        32           Au  tau(  32) = (   0.3332217   0.4998326   0.1666109  )
        33           Au  tau(  33) = (   0.6664434   0.4998326   0.1666109  )
        34           Au  tau(  34) = (   0.1666109   0.6664434   0.1666109  )
        35           Au  tau(  35) = (   0.4998326   0.6664434   0.1666109  )
        36           Au  tau(  36) = (   0.8330542   0.6664434   0.1666109  )
        37           Au  tau(  37) = (   0.0000000   0.8330542   0.1666109  )
        38           Au  tau(  38) = (   0.3332217   0.8330542   0.1666109  )
        39           Au  tau(  39) = (   0.6664434   0.8330542   0.1666109  )
        40           Au  tau(  40) = (  -0.0000182  -0.0000182   0.3335478  )
        41           Au  tau(  41) = (   0.3332215  -0.0000181   0.3335473  )
        42           Au  tau(  42) = (   0.6664447  -0.0000183   0.3335481  )
        43           Au  tau(  43) = (  -0.0000181   0.3332215   0.3335473  )
        44           Au  tau(  44) = (   0.3332215   0.3332215   0.3335468  )
        45           Au  tau(  45) = (   0.6664445   0.3332215   0.3335477  )
        46           Au  tau(  46) = (  -0.0000183   0.6664447   0.3335481  )
        47           Au  tau(  47) = (   0.3332215   0.6664445   0.3335477  )
        48           Au  tau(  48) = (   0.6664446   0.6664446   0.3335486  )
        49           Au  tau(  49) = (   0.1666097   0.1666097   0.3335483  )
        50           Au  tau(  50) = (   0.4998320   0.1666098   0.3335477  )
        51           Au  tau(  51) = (   0.8330732   0.1666096   0.3335480  )
        52           Au  tau(  52) = (   0.1666098   0.4998320   0.3335477  )
        53           Au  tau(  53) = (   0.4998322   0.4998322   0.3335470  )
        54           Au  tau(  54) = (   0.8330731   0.4998322   0.3335474  )
        55           Au  tau(  55) = (   0.1666096   0.8330732   0.3335480  )
        56           Au  tau(  56) = (   0.4998322   0.8330731   0.3335474  )
        57           Au  tau(  57) = (   0.8330731   0.8330731   0.3335478  )
        58           Au  tau(  58) = (   0.1666104  -0.0000111   0.4993095  )
        59           Au  tau(  59) = (   0.4998323  -0.0000112   0.4993099  )
        60           Au  tau(  60) = (   0.8330660  -0.0000111   0.4993009  )
        61           Au  tau(  61) = (  -0.0000111   0.1666104   0.4993095  )
        62           Au  tau(  62) = (   0.3332213   0.1666106   0.4993185  )
        63           Au  tau(  63) = (   0.6664437   0.1666106   0.4993187  )
        64           Au  tau(  64) = (   0.1666106   0.3332213   0.4993185  )
        65           Au  tau(  65) = (   0.4998324   0.3332216   0.4993185  )
        66           Au  tau(  66) = (   0.8330658   0.3332215   0.4993102  )
        67           Au  tau(  67) = (  -0.0000112   0.4998323   0.4993099  )
        68           Au  tau(  68) = (   0.3332216   0.4998324   0.4993185  )
        69           Au  tau(  69) = (   0.6664437   0.4998325   0.4993187  )
        70           Au  tau(  70) = (   0.1666106   0.6664437   0.4993187  )
        71           Au  tau(  71) = (   0.4998325   0.6664437   0.4993187  )
        72           Au  tau(  72) = (   0.8330658   0.6664438   0.4993102  )
        73           Au  tau(  73) = (  -0.0000111   0.8330660   0.4993009  )
        74           Au  tau(  74) = (   0.3332215   0.8330658   0.4993102  )
        75           Au  tau(  75) = (   0.6664438   0.8330658   0.4993102  )

     number of k points=     6  Marzari-Vanderbilt smearing, width (Ry)=  0.0200
                       cart. coord. in units 2pi/alat
        k(    1) = (   0.2500000   0.2500000   0.0833333), wk =   0.3333333
        k(    2) = (   0.2500000   0.2500000  -0.2500000), wk =   0.3333333
        k(    3) = (  -0.2500000  -0.2500000   0.0833333), wk =   0.3333333
        k(    4) = (  -0.2500000   0.2500000  -0.0833333), wk =   0.3333333
        k(    5) = (   0.2500000  -0.2500000  -0.0833333), wk =   0.3333333
        k(    6) = (  -0.2500000   0.2500000   0.2500000), wk =   0.3333333

     Dense  grid:  3792731 G-vectors     FFT dimensions: ( 160, 160, 320)

     Smooth grid:  1341081 G-vectors     FFT dimensions: ( 120, 120, 225)

     Largest allocated arrays     est. size (Mb)     dimensions
        Kohn-Sham Wavefunctions        38.58 Mb     (    5267,  480)
        NL pseudopotentials            76.03 Mb     (    5267,  946)
        Each V/rho on FFT grid          3.91 Mb     (  256000)
        Each G-vector array             0.90 Mb     (  118520)
        G-vector shells                 0.08 Mb     (   10286)
     Largest temporary arrays     est. size (Mb)     dimensions
        Auxiliary wavefunctions       154.31 Mb     (    5267, 1920)
        Each subspace H/S matrix       56.25 Mb     (    1920, 1920)
        Each <psi_i|beta_j> matrix      6.93 Mb     (     946,  480)
        Arrays for rho mixing          31.25 Mb     (  256000,    8)

     Initial potential from superposition of free atoms
     Check: negative starting charge=   -1.945126

     starting charge  799.16392, renormalised to  800.00000

     negative rho (up, down):  1.947E+00 0.000E+00


     ************************************************************************
     *
     * You are using vdW-DF for exchange-correlation in this calculation.
     * Please cite the following three references that made this development
     * possible:
     *
     *   M. Dion, H. Rydberg, E. Schroder, D. C. Langreth, and
     *   B. I. Lundqvist, Phys. Rev. Lett. 92, 246401 (2004).
     *
     *   T. Thonhauser, V. R. Cooper, S. Li, A. Puzder, P. Hyldgaard, and
     *   D. C. Langreth, Phys. Rev. B 76, 125112 (2007).
     *
     *   G. Roman-Perez and J. M. Soler, Phys. Rev. Lett. 103, 096102 (2009).
     *
     *
     * If you are using vdW-DF2, please also cite:
     *
     *   K. Lee, E. D. Murray, L. Kong, B. I. Lundqvist, and
     *   D. C. Langreth, Phys. Rev. B 82, 081101(R) (2010).
     *
     *
     * If you are calculating the stress with vdW-DF, please also cite:
     *
     *   R. Sabatini, E. Kucukbenli, B. Kolb, T. Thonhauser, and
     *   S. de Gironcoli, J. Phys.: Condens. Matter 24, 424209 (2012).
     *
     ************************************************************************

     Carrying out vdW-DF run using the following parameters:

     Nqs =      20    Nr_points =    1024   r_max =   100.000
     q_mesh =
               0.00001000     0.04494208     0.09755937     0.15916263
               0.23128650     0.31572767     0.41458969     0.53033537
               0.66584808     0.82450364     1.01025438     1.22772762
               1.48234092     1.78043706     2.12944203     2.53805004
               3.01644009     3.57652955     4.23227104     5.00000000

     Gradients computed in reciprocal space

     ************************************************************************


     Starting wfc are  654 randomized atomic wfcs

     total cpu time spent up to now is      159.9 secs

     Self-consistent Calculation

     iteration #  1     ecut=    50.00 Ry     beta=0.70
     Davidson diagonalization with overlap
     ethr =  1.00E-02,  avg # of iterations =  3.0

     Threshold (ethr) on eigenvalues was too large:
     Diagonalizing with lowered threshold

     Davidson diagonalization with overlap
     ethr =  4.31E-04,  avg # of iterations =  2.5

     negative rho (up, down):  1.947E+00 0.000E+00

     total cpu time spent up to now is      718.9 secs

     total energy              =   -7422.98741468 Ry
     Harris-Foulkes estimate   =   -7426.08974092 Ry
     estimated scf accuracy    <       3.82788099 Ry

     iteration #  2     ecut=    50.00 Ry     beta=0.70
     Davidson diagonalization with overlap
     ethr =  4.78E-04,  avg # of iterations = 11.3

     negative rho (up, down):  1.941E+00 0.000E+00

     total cpu time spent up to now is     1614.4 secs

     total energy              =   -7414.42433803 Ry
     Harris-Foulkes estimate   =   -7432.85506190 Ry
     estimated scf accuracy    <      97.97454623 Ry

     iteration #  3     ecut=    50.00 Ry     beta=0.70
     Davidson diagonalization with overlap
     ethr =  4.78E-04,  avg # of iterations =  6.0

     negative rho (up, down):  1.952E+00 0.000E+00

     total cpu time spent up to now is     2248.4 secs

     total energy              =   -7424.41344044 Ry
     Harris-Foulkes estimate   =   -7425.86519074 Ry
     estimated scf accuracy    <       5.59592853 Ry

     iteration #  4     ecut=    50.00 Ry     beta=0.70
     Davidson diagonalization with overlap
     ethr =  4.78E-04,  avg # of iterations =  6.0

     negative rho (up, down):  1.955E+00 0.000E+00

     total cpu time spent up to now is     2614.3 secs

     total energy              =   -7424.74403511 Ry
     Harris-Foulkes estimate   =   -7425.76473200 Ry
     estimated scf accuracy    <       7.71308329 Ry

     iteration #  5     ecut=    50.00 Ry     beta=0.70
     Davidson diagonalization with overlap
     ethr =  4.78E-04,  avg # of iterations =  6.3

     negative rho (up, down):  1.964E+00 0.000E+00

     total cpu time spent up to now is     2966.4 secs

     total energy              =   -7425.22376412 Ry
     Harris-Foulkes estimate   =   -7425.41327481 Ry
     estimated scf accuracy    <       1.08942976 Ry

     iteration #  6     ecut=    50.00 Ry     beta=0.70
     Davidson diagonalization with overlap
     ethr =  1.36E-04,  avg # of iterations =  4.0

     negative rho (up, down):  1.967E+00 0.000E+00

     total cpu time spent up to now is     3289.0 secs

     total energy              =   -7425.27630723 Ry
     Harris-Foulkes estimate   =   -7425.31617393 Ry
     estimated scf accuracy    <       0.13236913 Ry

     iteration #  7     ecut=    50.00 Ry     beta=0.70
     Davidson diagonalization with overlap
     ethr =  1.65E-05,  avg # of iterations = 11.7

     negative rho (up, down):  1.969E+00 0.000E+00

     total cpu time spent up to now is     3710.2 secs

     total energy              =   -7425.27870553 Ry
     Harris-Foulkes estimate   =   -7425.30776239 Ry
     estimated scf accuracy    <       0.12424273 Ry

     iteration #  8     ecut=    50.00 Ry     beta=0.70
     Davidson diagonalization with overlap
     ethr =  1.55E-05,  avg # of iterations =  3.2

     negative rho (up, down):  1.971E+00 0.000E+00

     total cpu time spent up to now is     4022.9 secs

     total energy              =   -7425.28055455 Ry
     Harris-Foulkes estimate   =   -7425.30119751 Ry
     estimated scf accuracy    <       0.08811509 Ry

     iteration #  9     ecut=    50.00 Ry     beta=0.70
     Davidson diagonalization with overlap
     ethr =  1.10E-05,  avg # of iterations =  9.3

     negative rho (up, down):  1.972E+00 0.000E+00

     total cpu time spent up to now is     4423.9 secs

     total energy              =   -7425.28722435 Ry
     Harris-Foulkes estimate   =   -7425.29414446 Ry
     estimated scf accuracy    <       0.02374181 Ry

     iteration # 10     ecut=    50.00 Ry     beta=0.70
     Davidson diagonalization with overlap
     ethr =  2.97E-06,  avg # of iterations =  8.2

     negative rho (up, down):  1.972E+00 0.000E+00

     total cpu time spent up to now is     4825.8 secs

     total energy              =   -7425.29020962 Ry
     Harris-Foulkes estimate   =   -7425.29187219 Ry
     estimated scf accuracy    <       0.00469425 Ry

     iteration # 11     ecut=    50.00 Ry     beta=0.70
     Davidson diagonalization with overlap
     ethr =  5.87E-07,  avg # of iterations =  6.7

     negative rho (up, down):  1.973E+00 0.000E+00

     total cpu time spent up to now is     5208.6 secs

     total energy              =   -7425.29092002 Ry
     Harris-Foulkes estimate   =   -7425.29141053 Ry
     estimated scf accuracy    <       0.00131241 Ry

     iteration # 12     ecut=    50.00 Ry     beta=0.70
     Davidson diagonalization with overlap
     ethr =  1.64E-07,  avg # of iterations =  2.0

     negative rho (up, down):  1.973E+00 0.000E+00

     total cpu time spent up to now is     5492.8 secs

     total energy              =   -7425.29109228 Ry
     Harris-Foulkes estimate   =   -7425.29124621 Ry
     estimated scf accuracy    <       0.00046299 Ry

     iteration # 13     ecut=    50.00 Ry     beta=0.70
     Davidson diagonalization with overlap
     ethr =  5.79E-08,  avg # of iterations =  3.0

     negative rho (up, down):  1.974E+00 0.000E+00

     total cpu time spent up to now is     5834.9 secs

     total energy              =   -7425.29107081 Ry
     Harris-Foulkes estimate   =   -7425.29130541 Ry
     estimated scf accuracy    <       0.00119955 Ry

     iteration # 14     ecut=    50.00 Ry     beta=0.70
     Davidson diagonalization with overlap
     ethr =  5.79E-08,  avg # of iterations =  2.0

     negative rho (up, down):  1.974E+00 0.000E+00

     total cpu time spent up to now is     6122.4 secs

     total energy              =   -7425.29117328 Ry
     Harris-Foulkes estimate   =   -7425.29120089 Ry
     estimated scf accuracy    <       0.00010439 Ry

     iteration # 15     ecut=    50.00 Ry     beta=0.70
     Davidson diagonalization with overlap
     ethr =  1.30E-08,  avg # of iterations =  2.0

     negative rho (up, down):  1.974E+00 0.000E+00

     total cpu time spent up to now is     6401.3 secs

     total energy              =   -7425.29117426 Ry
     Harris-Foulkes estimate   =   -7425.29119897 Ry
     estimated scf accuracy    <       0.00009878 Ry

     iteration # 16     ecut=    50.00 Ry     beta=0.70
     Davidson diagonalization with overlap
     ethr =  1.23E-08,  avg # of iterations =  2.0

     negative rho (up, down):  1.974E+00 0.000E+00

     total cpu time spent up to now is     6678.8 secs

     total energy              =   -7425.29116597 Ry
     Harris-Foulkes estimate   =   -7425.29121663 Ry
     estimated scf accuracy    <       0.00041452 Ry

     iteration # 17     ecut=    50.00 Ry     beta=0.70
     Davidson diagonalization with overlap
     ethr =  1.23E-08,  avg # of iterations =  2.0

     negative rho (up, down):  1.974E+00 0.000E+00

     total cpu time spent up to now is     6945.5 secs

     total energy              =   -7425.29118808 Ry
     Harris-Foulkes estimate   =   -7425.29119160 Ry
     estimated scf accuracy    <       0.00001373 Ry

     iteration # 18     ecut=    50.00 Ry     beta=0.70
     Davidson diagonalization with overlap
     ethr =  1.72E-09,  avg # of iterations =  2.0

     negative rho (up, down):  1.974E+00 0.000E+00

     total cpu time spent up to now is     7216.6 secs

     total energy              =   -7425.29118942 Ry
     Harris-Foulkes estimate   =   -7425.29119070 Ry
     estimated scf accuracy    <       0.00000478 Ry

     iteration # 19     ecut=    50.00 Ry     beta=0.70
     Davidson diagonalization with overlap
     ethr =  5.98E-10,  avg # of iterations =  2.0

     negative rho (up, down):  1.974E+00 0.000E+00

     total cpu time spent up to now is     7484.6 secs

     total energy              =   -7425.29118956 Ry
     Harris-Foulkes estimate   =   -7425.29119040 Ry
     estimated scf accuracy    <       0.00000262 Ry

     iteration # 20     ecut=    50.00 Ry     beta=0.70
     Davidson diagonalization with overlap
     ethr =  3.28E-10,  avg # of iterations =  2.0

     negative rho (up, down):  1.974E+00 0.000E+00

     total cpu time spent up to now is     7769.9 secs

     total energy              =   -7425.29118970 Ry
     Harris-Foulkes estimate   =   -7425.29119002 Ry
     estimated scf accuracy    <       0.00000059 Ry

     iteration # 21     ecut=    50.00 Ry     beta=0.70
     Davidson diagonalization with overlap
     ethr =  7.43E-11,  avg # of iterations =  2.0

     negative rho (up, down):  1.974E+00 0.000E+00

     total cpu time spent up to now is     8048.4 secs

     total energy              =   -7425.29118971 Ry
     Harris-Foulkes estimate   =   -7425.29118981 Ry
     estimated scf accuracy    <       0.00000007 Ry

     iteration # 22     ecut=    50.00 Ry     beta=0.70
     Davidson diagonalization with overlap
     ethr =  8.98E-12,  avg # of iterations =  3.0

     negative rho (up, down):  1.974E+00 0.000E+00

     total cpu time spent up to now is     8434.3 secs

     total energy              =   -7425.29118966 Ry
     Harris-Foulkes estimate   =   -7425.29118975 Ry
     estimated scf accuracy    <       0.00000007 Ry

     iteration # 23     ecut=    50.00 Ry     beta=0.70
     Davidson diagonalization with overlap
     ethr =  8.67E-12,  avg # of iterations =  2.0

     negative rho (up, down):  1.974E+00 0.000E+00

     total cpu time spent up to now is     8707.4 secs

     total energy              =   -7425.29118966 Ry
     Harris-Foulkes estimate   =   -7425.29118968 Ry
     estimated scf accuracy    <       0.00000003 Ry

     iteration # 24     ecut=    50.00 Ry     beta=0.70
     Davidson diagonalization with overlap
     ethr =  3.17E-12,  avg # of iterations =  2.0

     negative rho (up, down):  1.974E+00 0.000E+00

     total cpu time spent up to now is     9003.3 secs

     total energy              =   -7425.29118963 Ry
     Harris-Foulkes estimate   =   -7425.29118967 Ry
     estimated scf accuracy    <       0.00000004 Ry

     iteration # 25     ecut=    50.00 Ry     beta=0.70
     Davidson diagonalization with overlap
     ethr =  3.17E-12,  avg # of iterations =  2.0

     negative rho (up, down):  1.974E+00 0.000E+00

     total cpu time spent up to now is     9279.0 secs

     total energy              =   -7425.29118962 Ry
     Harris-Foulkes estimate   =   -7425.29118964 Ry
     estimated scf accuracy    <       0.00000001 Ry

     iteration # 26     ecut=    50.00 Ry     beta=0.70
     Davidson diagonalization with overlap
     ethr =  1.77E-12,  avg # of iterations =  2.0

     negative rho (up, down):  1.974E+00 0.000E+00

     total cpu time spent up to now is     9561.5 secs

     End of self-consistent calculation

          k = 0.2500 0.2500 0.0833 (167653 PWs)   bands (ev):

   -20.0080  -7.8143  -6.7118  -6.1832  -6.1830  -5.7533  -5.3494  -5.2513
    -5.2510  -5.0549  -5.0545  -4.9480  -4.9381  -4.8584  -4.8383  -4.7622
    -4.6780  -4.6737  -4.6366  -4.6351  -4.4880  -4.4569  -4.4561  -4.4561
    -4.4506  -4.4009  -4.3930  -4.3814  -4.3810  -4.3735  -4.3435  -4.3323
    -4.3042  -4.2893  -4.2832  -4.2558  -4.2539  -4.2032  -4.1992  -4.1905
    -4.1853  -4.1728  -4.1721  -4.1632  -4.1204  -4.1128  -4.1124  -4.1052
    -4.1032  -4.0652  -4.0241  -4.0086  -4.0078  -4.0066  -3.9969  -3.9968
    -3.9911  -3.9905  -3.9884  -3.9267  -3.9086  -3.8760  -3.8755  -3.8614
    -3.8375  -3.8329  -3.8189  -3.8142  -3.8142  -3.8084  -3.8065  -3.7578
    -3.7578  -3.7450  -3.7425  -3.6402  -3.6372  -3.6340  -3.6286  -3.5957
    -3.5815  -3.5731  -3.5430  -3.5430  -3.5141  -3.5129  -3.4927  -3.4927
    -3.4789  -3.4765  -3.4234  -3.4223  -3.4032  -3.3899  -3.3779  -3.3765
    -3.3761  -3.3759  -3.3491  -3.3484  -3.3117  -3.3110  -3.2897  -3.2857
    -3.2565  -3.2517  -3.2381  -3.2101  -3.2085  -3.1727  -3.1726  -3.1364
    -3.1293  -3.1283  -3.1152  -3.1116  -3.1095  -3.1086  -3.0692  -3.0614
    -3.0208  -3.0204  -3.0118  -3.0026  -3.0021  -3.0012  -2.9764  -2.9762
    -2.9552  -2.9551  -2.9541  -2.9283  -2.9274  -2.9198  -2.9172  -2.9143
    -2.8804  -2.8770  -2.8415  -2.8413  -2.8407  -2.8374  -2.8358  -2.7573
    -2.7478  -2.7444  -2.7432  -2.7423  -2.7421  -2.7374  -2.7370  -2.7366
    -2.7364  -2.7265  -2.7187  -2.7028  -2.6999  -2.6991  -2.6961  -2.6848
    -2.6783  -2.6415  -2.6405  -2.6404  -2.6373  -2.6347  -2.6177  -2.6170
    -2.6089  -2.6064  -2.6059  -2.5477  -2.5462  -2.5414  -2.5407  -2.5380
    -2.5333  -2.5070  -2.4513  -2.4486  -2.4482  -2.4452  -2.4343  -2.4327
    -2.4314  -2.4167  -2.4160  -2.3835  -2.3791  -2.3725  -2.3711  -2.3709
    -2.3667  -2.3306  -2.3305  -2.3257  -2.3198  -2.3191  -2.3186  -2.2750
    -2.2612  -2.2519  -2.2207  -2.2006  -2.2005  -2.1817  -2.1776  -2.1728
    -2.1426  -2.1238  -2.1120  -2.1026  -2.0854  -2.0726  -2.0709  -2.0680
    -2.0485  -2.0473  -2.0389  -2.0244  -1.9832  -1.9807  -1.9687  -1.9669
    -1.9640  -1.9564  -1.9553  -1.9425  -1.9409  -1.9376  -1.9356  -1.9323
    -1.9311  -1.9304  -1.9192  -1.9180  -1.9010  -1.8996  -1.8916  -1.8907
    -1.8883  -1.8861  -1.8660  -1.8650  -1.8528  -1.8522  -1.8450  -1.8409
    -1.8091  -1.7756  -1.7735  -1.7394  -1.7227  -1.7222  -1.7116  -1.7090
    -1.6877  -1.6862  -1.6740  -1.6726  -1.6713  -1.6710  -1.6679  -1.6572
    -1.6353  -1.6348  -1.6347  -1.5901  -1.5864  -1.5497  -1.5477  -1.5022
    -1.5003  -1.4891  -1.4667  -1.4628  -1.4592  -1.4413  -1.4403  -1.4239
    -1.4239  -1.4197  -1.4186  -1.4183  -1.4171  -1.4118  -1.4038  -1.3937
    -1.3925  -1.3810  -1.3656  -1.3472  -1.3466  -1.3209  -1.3206  -1.3181
    -1.3150  -1.3124  -1.3087  -1.2905  -1.2867  -1.2736  -1.2693  -1.2557
    -1.2510  -1.2378  -1.2371  -1.2067  -1.2056  -1.1977  -1.1947  -1.1607
    -1.1603  -1.1540  -1.1508  -1.1455  -1.1450  -1.1235  -1.1234  -1.1116
    -1.1047  -1.1045  -1.0923  -1.0919  -1.0900  -1.0871  -1.0767  -1.0646
    -1.0634  -1.0569  -1.0566  -1.0463  -1.0399  -1.0371  -1.0342  -0.9944
    -0.9909  -0.9895  -0.9851  -0.9847  -0.9817  -0.9454  -0.9286  -0.9280
    -0.9269  -0.9267  -0.9213  -0.9176  -0.9165  -0.9026  -0.8990  -0.8667
    -0.8661  -0.8586  -0.8581  -0.8359  -0.8356  -0.8259  -0.7966  -0.7888
    -0.7615  -0.7614  -0.7331  -0.7327  -0.7294  -0.7292  -0.7281  -0.7232
    -0.7188  -0.7186  -0.7142  -0.7131  -0.6823  -0.6817  -0.6648  -0.6624
    -0.6588  -0.6588  -0.6511  -0.6482  -0.6377  -0.3620  -0.3524  -0.2957
    -0.2871  -0.2559  -0.0930  -0.0307  -0.0291   0.0053   0.2901   0.2909
     0.6164   0.6239   0.7182   0.7184   0.7579   0.7625   0.9069   0.9076
     1.0265   1.0289   1.1155   1.7128   1.7321   1.7331   1.7723   1.7765
     1.8157   1.8288   1.9023   1.9051   2.1087   2.1100   2.3401   2.4195
     2.4290   2.4428   2.8134   2.8238   2.8941   2.8957   2.9021   2.9042
     3.0538   3.0540   3.0739   3.1925   3.2026   3.4261   3.4399   3.5633
     3.5877   3.5912   3.8606   3.8623   3.9703   3.9729   3.9940   3.9952
     4.0475   4.1800   4.1846   4.4164   4.4178   4.4842   4.5051   4.6213
     4.6333   4.6455   4.6492   4.6789   4.8581   5.3937   5.4106   5.4406
     5.5536   5.5653   5.6114   5.6836   5.7396   5.7404   5.7465   5.8510
     5.8532   5.9113   5.9128   5.9481   5.9889   6.0476   6.0820   6.1631
     6.1787   6.2123   6.2226   6.2296   6.2489   6.2569   6.2605   6.2623

          k = 0.2500 0.2500-0.2500 (167588 PWs)   bands (ev):

   -20.0080  -7.8143  -6.7118  -6.1832  -6.1830  -5.7533  -5.3494  -5.2513
    -5.2510  -5.0549  -5.0545  -4.9480  -4.9381  -4.8584  -4.8383  -4.7622
    -4.6780  -4.6737  -4.6366  -4.6351  -4.4880  -4.4569  -4.4561  -4.4561
    -4.4506  -4.4009  -4.3930  -4.3814  -4.3810  -4.3735  -4.3435  -4.3323
    -4.3042  -4.2893  -4.2832  -4.2558  -4.2539  -4.2032  -4.1992  -4.1905
    -4.1853  -4.1728  -4.1721  -4.1632  -4.1204  -4.1128  -4.1124  -4.1052
    -4.1032  -4.0652  -4.0241  -4.0086  -4.0077  -4.0066  -3.9969  -3.9968
    -3.9911  -3.9905  -3.9884  -3.9267  -3.9086  -3.8760  -3.8755  -3.8614
    -3.8375  -3.8329  -3.8189  -3.8142  -3.8142  -3.8084  -3.8065  -3.7578
    -3.7578  -3.7450  -3.7425  -3.6402  -3.6372  -3.6340  -3.6286  -3.5957
    -3.5815  -3.5731  -3.5430  -3.5430  -3.5141  -3.5129  -3.4927  -3.4927
    -3.4789  -3.4765  -3.4235  -3.4223  -3.4032  -3.3899  -3.3779  -3.3765
    -3.3761  -3.3759  -3.3491  -3.3484  -3.3117  -3.3110  -3.2897  -3.2857
    -3.2565  -3.2517  -3.2381  -3.2101  -3.2085  -3.1727  -3.1726  -3.1364
    -3.1293  -3.1283  -3.1152  -3.1116  -3.1095  -3.1086  -3.0692  -3.0614
    -3.0208  -3.0204  -3.0118  -3.0026  -3.0021  -3.0012  -2.9764  -2.9762
    -2.9552  -2.9551  -2.9541  -2.9283  -2.9274  -2.9198  -2.9172  -2.9143
    -2.8804  -2.8770  -2.8415  -2.8413  -2.8407  -2.8374  -2.8358  -2.7574
    -2.7478  -2.7444  -2.7432  -2.7423  -2.7421  -2.7374  -2.7370  -2.7366
    -2.7364  -2.7265  -2.7187  -2.7028  -2.6999  -2.6991  -2.6961  -2.6848
    -2.6783  -2.6415  -2.6405  -2.6404  -2.6373  -2.6346  -2.6177  -2.6170
    -2.6089  -2.6064  -2.6059  -2.5477  -2.5462  -2.5414  -2.5407  -2.5380
    -2.5333  -2.5070  -2.4513  -2.4486  -2.4482  -2.4452  -2.4343  -2.4327
    -2.4314  -2.4167  -2.4160  -2.3835  -2.3791  -2.3725  -2.3711  -2.3709
    -2.3667  -2.3306  -2.3305  -2.3257  -2.3198  -2.3191  -2.3186  -2.2750
    -2.2612  -2.2519  -2.2207  -2.2006  -2.2005  -2.1817  -2.1776  -2.1728
    -2.1426  -2.1238  -2.1120  -2.1026  -2.0854  -2.0726  -2.0709  -2.0680
    -2.0485  -2.0473  -2.0389  -2.0244  -1.9832  -1.9807  -1.9687  -1.9669
    -1.9640  -1.9564  -1.9553  -1.9425  -1.9409  -1.9376  -1.9356  -1.9323
    -1.9311  -1.9304  -1.9192  -1.9180  -1.9010  -1.8996  -1.8917  -1.8907
    -1.8883  -1.8861  -1.8660  -1.8650  -1.8528  -1.8522  -1.8450  -1.8409
    -1.8092  -1.7756  -1.7734  -1.7395  -1.7227  -1.7222  -1.7116  -1.7090
    -1.6877  -1.6862  -1.6740  -1.6726  -1.6713  -1.6710  -1.6679  -1.6572
    -1.6353  -1.6348  -1.6347  -1.5901  -1.5864  -1.5497  -1.5477  -1.5022
    -1.5003  -1.4891  -1.4667  -1.4628  -1.4592  -1.4413  -1.4403  -1.4239
    -1.4239  -1.4197  -1.4186  -1.4183  -1.4171  -1.4118  -1.4038  -1.3937
    -1.3925  -1.3810  -1.3656  -1.3472  -1.3466  -1.3209  -1.3206  -1.3181
    -1.3150  -1.3124  -1.3087  -1.2905  -1.2867  -1.2736  -1.2693  -1.2557
    -1.2510  -1.2378  -1.2371  -1.2067  -1.2056  -1.1977  -1.1947  -1.1607
    -1.1603  -1.1540  -1.1508  -1.1455  -1.1450  -1.1235  -1.1234  -1.1116
    -1.1047  -1.1045  -1.0923  -1.0919  -1.0900  -1.0871  -1.0767  -1.0646
    -1.0634  -1.0568  -1.0566  -1.0463  -1.0399  -1.0371  -1.0342  -0.9944
    -0.9909  -0.9895  -0.9851  -0.9847  -0.9817  -0.9454  -0.9285  -0.9280
    -0.9269  -0.9267  -0.9213  -0.9176  -0.9165  -0.9026  -0.8990  -0.8667
    -0.8661  -0.8586  -0.8581  -0.8359  -0.8356  -0.8259  -0.7966  -0.7888
    -0.7615  -0.7614  -0.7331  -0.7327  -0.7294  -0.7292  -0.7281  -0.7232
    -0.7188  -0.7186  -0.7142  -0.7131  -0.6823  -0.6817  -0.6648  -0.6624
    -0.6588  -0.6587  -0.6511  -0.6482  -0.6377  -0.3620  -0.3524  -0.2957
    -0.2871  -0.2559  -0.0930  -0.0307  -0.0291   0.0053   0.2901   0.2909
     0.6164   0.6239   0.7182   0.7184   0.7579   0.7625   0.9069   0.9076
     1.0265   1.0289   1.1155   1.7128   1.7321   1.7331   1.7723   1.7765
     1.8157   1.8288   1.9023   1.9051   2.1087   2.1100   2.3401   2.4195
     2.4290   2.4428   2.8134   2.8238   2.8941   2.8957   2.9021   2.9042
     3.0538   3.0540   3.0739   3.1925   3.2026   3.4261   3.4399   3.5633
     3.5877   3.5912   3.8606   3.8623   3.9703   3.9730   3.9940   3.9952
     4.0476   4.1800   4.1846   4.4164   4.4178   4.4841   4.5051   4.6211
     4.6332   4.6455   4.6491   4.6784   4.8563   5.3923   5.4093   5.4146
     5.5535   5.5653   5.6599   5.6947   5.7398   5.7440   5.7500   5.8510
     5.8526   5.9121   5.9127   5.9537   5.9725   6.0650   6.1075   6.1481
     6.1942   6.2207   6.2286   6.2392   6.2480   6.2601   6.2611   6.2623

          k =-0.2500-0.2500 0.0833 (167653 PWs)   bands (ev):

   -20.0080  -7.8143  -6.7118  -6.1832  -6.1830  -5.7533  -5.3494  -5.2513
    -5.2510  -5.0549  -5.0545  -4.9480  -4.9381  -4.8584  -4.8383  -4.7622
    -4.6780  -4.6737  -4.6366  -4.6351  -4.4880  -4.4569  -4.4561  -4.4561
    -4.4506  -4.4009  -4.3930  -4.3814  -4.3810  -4.3735  -4.3435  -4.3323
    -4.3042  -4.2893  -4.2832  -4.2558  -4.2539  -4.2032  -4.1992  -4.1905
    -4.1853  -4.1728  -4.1721  -4.1632  -4.1204  -4.1128  -4.1124  -4.1052
    -4.1032  -4.0652  -4.0241  -4.0086  -4.0078  -4.0066  -3.9969  -3.9968
    -3.9911  -3.9905  -3.9884  -3.9267  -3.9086  -3.8760  -3.8755  -3.8614
    -3.8375  -3.8329  -3.8189  -3.8142  -3.8142  -3.8084  -3.8065  -3.7578
    -3.7578  -3.7450  -3.7425  -3.6402  -3.6372  -3.6340  -3.6286  -3.5957
    -3.5815  -3.5731  -3.5430  -3.5430  -3.5141  -3.5129  -3.4927  -3.4927
    -3.4789  -3.4765  -3.4234  -3.4223  -3.4032  -3.3899  -3.3779  -3.3765
    -3.3761  -3.3759  -3.3491  -3.3484  -3.3117  -3.3110  -3.2897  -3.2857
    -3.2565  -3.2517  -3.2381  -3.2101  -3.2085  -3.1727  -3.1726  -3.1364
    -3.1293  -3.1283  -3.1152  -3.1116  -3.1095  -3.1086  -3.0692  -3.0614
    -3.0208  -3.0204  -3.0118  -3.0026  -3.0021  -3.0012  -2.9764  -2.9762
    -2.9552  -2.9551  -2.9541  -2.9283  -2.9274  -2.9198  -2.9172  -2.9143
    -2.8804  -2.8770  -2.8415  -2.8413  -2.8407  -2.8374  -2.8358  -2.7573
    -2.7478  -2.7444  -2.7432  -2.7423  -2.7421  -2.7374  -2.7370  -2.7366
    -2.7364  -2.7265  -2.7187  -2.7028  -2.6999  -2.6991  -2.6961  -2.6848
    -2.6783  -2.6415  -2.6405  -2.6404  -2.6373  -2.6347  -2.6177  -2.6170
    -2.6089  -2.6064  -2.6059  -2.5477  -2.5462  -2.5414  -2.5407  -2.5380
    -2.5333  -2.5070  -2.4513  -2.4486  -2.4482  -2.4452  -2.4343  -2.4327
    -2.4314  -2.4167  -2.4160  -2.3835  -2.3791  -2.3725  -2.3711  -2.3709
    -2.3667  -2.3306  -2.3305  -2.3257  -2.3198  -2.3191  -2.3186  -2.2750
    -2.2612  -2.2519  -2.2207  -2.2006  -2.2005  -2.1817  -2.1776  -2.1728
    -2.1426  -2.1238  -2.1120  -2.1026  -2.0854  -2.0726  -2.0709  -2.0680
    -2.0485  -2.0473  -2.0389  -2.0244  -1.9832  -1.9807  -1.9687  -1.9669
    -1.9640  -1.9564  -1.9553  -1.9425  -1.9409  -1.9376  -1.9356  -1.9323
    -1.9311  -1.9304  -1.9192  -1.9180  -1.9010  -1.8996  -1.8916  -1.8907
    -1.8883  -1.8861  -1.8660  -1.8650  -1.8528  -1.8522  -1.8450  -1.8409
    -1.8091  -1.7756  -1.7735  -1.7394  -1.7227  -1.7222  -1.7116  -1.7090
    -1.6877  -1.6862  -1.6740  -1.6726  -1.6713  -1.6710  -1.6679  -1.6572
    -1.6353  -1.6348  -1.6347  -1.5901  -1.5864  -1.5497  -1.5477  -1.5022
    -1.5003  -1.4891  -1.4667  -1.4628  -1.4592  -1.4413  -1.4403  -1.4239
    -1.4239  -1.4197  -1.4186  -1.4183  -1.4171  -1.4118  -1.4038  -1.3937
    -1.3925  -1.3810  -1.3656  -1.3472  -1.3466  -1.3209  -1.3206  -1.3181
    -1.3150  -1.3124  -1.3087  -1.2905  -1.2867  -1.2736  -1.2693  -1.2557
    -1.2510  -1.2378  -1.2371  -1.2067  -1.2056  -1.1977  -1.1947  -1.1607
    -1.1603  -1.1540  -1.1508  -1.1455  -1.1450  -1.1235  -1.1234  -1.1116
    -1.1047  -1.1045  -1.0923  -1.0919  -1.0900  -1.0871  -1.0767  -1.0646
    -1.0634  -1.0569  -1.0566  -1.0463  -1.0399  -1.0371  -1.0342  -0.9944
    -0.9909  -0.9895  -0.9851  -0.9847  -0.9817  -0.9454  -0.9286  -0.9280
    -0.9269  -0.9267  -0.9213  -0.9176  -0.9165  -0.9026  -0.8990  -0.8667
    -0.8661  -0.8586  -0.8581  -0.8359  -0.8356  -0.8259  -0.7966  -0.7888
    -0.7615  -0.7614  -0.7331  -0.7327  -0.7294  -0.7292  -0.7281  -0.7232
    -0.7188  -0.7186  -0.7142  -0.7131  -0.6823  -0.6817  -0.6648  -0.6624
    -0.6588  -0.6588  -0.6511  -0.6482  -0.6377  -0.3620  -0.3524  -0.2957
    -0.2871  -0.2559  -0.0930  -0.0307  -0.0291   0.0053   0.2901   0.2909
     0.6164   0.6239   0.7182   0.7184   0.7579   0.7625   0.9069   0.9076
     1.0265   1.0289   1.1155   1.7128   1.7321   1.7331   1.7723   1.7765
     1.8157   1.8288   1.9023   1.9051   2.1087   2.1100   2.3401   2.4195
     2.4290   2.4428   2.8134   2.8238   2.8941   2.8957   2.9021   2.9042
     3.0538   3.0540   3.0739   3.1925   3.2026   3.4261   3.4399   3.5633
     3.5877   3.5912   3.8606   3.8623   3.9703   3.9729   3.9940   3.9952
     4.0475   4.1800   4.1846   4.4164   4.4178   4.4842   4.5051   4.6213
     4.6333   4.6455   4.6492   4.6789   4.8580   5.3937   5.4106   5.4403
     5.5536   5.5653   5.6120   5.6836   5.7395   5.7404   5.7465   5.8510
     5.8532   5.9113   5.9128   5.9480   5.9889   6.0463   6.0820   6.1631
     6.1790   6.2132   6.2226   6.2296   6.2489   6.2569   6.2605   6.2623

          k =-0.2500 0.2500-0.0833 (167653 PWs)   bands (ev):

   -20.0080  -7.8143  -6.7118  -6.1831  -6.1830  -5.7534  -5.3495  -5.2513
    -5.2512  -5.0551  -5.0540  -4.9478  -4.9381  -4.8584  -4.8385  -4.7624
    -4.6780  -4.6736  -4.6368  -4.6344  -4.4879  -4.4570  -4.4561  -4.4559
    -4.4506  -4.4010  -4.3927  -4.3815  -4.3810  -4.3738  -4.3436  -4.3323
    -4.3044  -4.2892  -4.2836  -4.2558  -4.2539  -4.2035  -4.1990  -4.1905
    -4.1853  -4.1730  -4.1720  -4.1629  -4.1206  -4.1126  -4.1125  -4.1050
    -4.1034  -4.0657  -4.0248  -4.0088  -4.0076  -4.0053  -3.9973  -3.9963
    -3.9912  -3.9905  -3.9885  -3.9270  -3.9083  -3.8763  -3.8761  -3.8618
    -3.8372  -3.8331  -3.8179  -3.8145  -3.8139  -3.8080  -3.8066  -3.7579
    -3.7577  -3.7451  -3.7422  -3.6402  -3.6374  -3.6340  -3.6290  -3.5958
    -3.5814  -3.5731  -3.5433  -3.5422  -3.5142  -3.5129  -3.4931  -3.4921
    -3.4791  -3.4760  -3.4236  -3.4223  -3.4036  -3.3897  -3.3783  -3.3765
    -3.3763  -3.3756  -3.3488  -3.3479  -3.3113  -3.3108  -3.2900  -3.2857
    -3.2568  -3.2515  -3.2382  -3.2101  -3.2088  -3.1727  -3.1725  -3.1367
    -3.1291  -3.1283  -3.1154  -3.1118  -3.1095  -3.1089  -3.0692  -3.0612
    -3.0208  -3.0205  -3.0118  -3.0027  -3.0016  -3.0015  -2.9765  -2.9760
    -2.9555  -2.9548  -2.9541  -2.9275  -2.9273  -2.9200  -2.9171  -2.9144
    -2.8804  -2.8772  -2.8433  -2.8417  -2.8407  -2.8375  -2.8358  -2.7574
    -2.7479  -2.7441  -2.7433  -2.7425  -2.7418  -2.7375  -2.7371  -2.7365
    -2.7363  -2.7265  -2.7187  -2.7028  -2.6999  -2.6989  -2.6960  -2.6841
    -2.6782  -2.6419  -2.6406  -2.6404  -2.6367  -2.6362  -2.6177  -2.6170
    -2.6090  -2.6064  -2.6058  -2.5475  -2.5459  -2.5413  -2.5407  -2.5374
    -2.5330  -2.5075  -2.4492  -2.4481  -2.4477  -2.4452  -2.4339  -2.4311
    -2.4282  -2.4165  -2.4162  -2.3808  -2.3801  -2.3743  -2.3715  -2.3709
    -2.3699  -2.3315  -2.3307  -2.3265  -2.3197  -2.3190  -2.3187  -2.2809
    -2.2748  -2.2529  -2.2091  -2.2012  -2.1963  -2.1836  -2.1766  -2.1747
    -2.1283  -2.1247  -2.1055  -2.1031  -2.0835  -2.0730  -2.0721  -2.0699
    -2.0496  -2.0483  -2.0400  -2.0213  -1.9833  -1.9790  -1.9690  -1.9686
    -1.9665  -1.9573  -1.9545  -1.9428  -1.9413  -1.9379  -1.9365  -1.9332
    -1.9316  -1.9254  -1.9191  -1.9180  -1.9012  -1.8994  -1.8990  -1.8908
    -1.8892  -1.8884  -1.8658  -1.8651  -1.8550  -1.8518  -1.8487  -1.8448
    -1.8091  -1.7760  -1.7752  -1.7396  -1.7230  -1.7220  -1.7130  -1.7067
    -1.6896  -1.6816  -1.6749  -1.6719  -1.6717  -1.6700  -1.6611  -1.6545
    -1.6354  -1.6347  -1.6345  -1.5901  -1.5895  -1.5498  -1.5464  -1.5028
    -1.4996  -1.4884  -1.4668  -1.4631  -1.4590  -1.4442  -1.4402  -1.4244
    -1.4239  -1.4201  -1.4194  -1.4186  -1.4168  -1.4127  -1.4104  -1.3939
    -1.3922  -1.3790  -1.3658  -1.3474  -1.3427  -1.3206  -1.3198  -1.3183
    -1.3174  -1.3137  -1.3060  -1.2915  -1.2816  -1.2763  -1.2658  -1.2559
    -1.2512  -1.2380  -1.2350  -1.2069  -1.2058  -1.1992  -1.1944  -1.1633
    -1.1607  -1.1542  -1.1534  -1.1464  -1.1403  -1.1234  -1.1232  -1.1117
    -1.1050  -1.1037  -1.0923  -1.0920  -1.0910  -1.0816  -1.0765  -1.0661
    -1.0615  -1.0568  -1.0564  -1.0437  -1.0423  -1.0343  -1.0324  -0.9931
    -0.9926  -0.9896  -0.9847  -0.9845  -0.9845  -0.9455  -0.9297  -0.9279
    -0.9271  -0.9251  -0.9242  -0.9176  -0.9114  -0.9058  -0.9021  -0.8669
    -0.8635  -0.8585  -0.8579  -0.8361  -0.8355  -0.8259  -0.7964  -0.7887
    -0.7618  -0.7608  -0.7329  -0.7327  -0.7300  -0.7289  -0.7281  -0.7235
    -0.7189  -0.7187  -0.7146  -0.7140  -0.6825  -0.6812  -0.6668  -0.6607
    -0.6590  -0.6581  -0.6577  -0.6429  -0.6379  -0.3622  -0.3523  -0.3011
    -0.2839  -0.2556  -0.0936  -0.0311  -0.0292   0.0083   0.2865   0.2942
     0.6133   0.6286   0.7167   0.7203   0.7563   0.7646   0.8985   0.9087
     1.0266   1.0290   1.1169   1.7154   1.7316   1.7349   1.7710   1.7762
     1.8082   1.8358   1.8982   1.9087   2.1067   2.1123   2.3425   2.4172
     2.4356   2.4428   2.8088   2.8289   2.8938   2.8957   2.9013   2.9057
     3.0527   3.0554   3.0730   3.1946   3.1958   3.4272   3.4281   3.5642
     3.5862   3.5943   3.8583   3.8623   3.9702   3.9928   3.9942   4.0024
     4.0315   4.1784   4.1837   4.4143   4.4186   4.4998   4.5017   4.6058
     4.6307   4.6359   4.6412   4.6752   4.8975   5.3662   5.4248   5.5087
     5.5467   5.5551   5.5780   5.6345   5.7372   5.7438   5.7503   5.8470
     5.8605   5.9097   5.9107   5.9439   6.0191   6.0240   6.1193   6.1336
     6.1883   6.2172   6.2303   6.2379   6.2404   6.2461   6.2592   6.2622

          k = 0.2500-0.2500-0.0833 (167653 PWs)   bands (ev):

   -20.0080  -7.8143  -6.7118  -6.1831  -6.1830  -5.7534  -5.3495  -5.2513
    -5.2512  -5.0551  -5.0540  -4.9478  -4.9381  -4.8584  -4.8385  -4.7624
    -4.6780  -4.6736  -4.6368  -4.6344  -4.4879  -4.4570  -4.4561  -4.4559
    -4.4506  -4.4010  -4.3927  -4.3815  -4.3810  -4.3738  -4.3436  -4.3323
    -4.3044  -4.2892  -4.2836  -4.2558  -4.2539  -4.2035  -4.1990  -4.1905
    -4.1853  -4.1730  -4.1720  -4.1629  -4.1206  -4.1126  -4.1125  -4.1050
    -4.1034  -4.0657  -4.0248  -4.0088  -4.0076  -4.0053  -3.9973  -3.9963
    -3.9912  -3.9905  -3.9885  -3.9270  -3.9083  -3.8763  -3.8761  -3.8618
    -3.8372  -3.8331  -3.8179  -3.8145  -3.8139  -3.8080  -3.8066  -3.7579
    -3.7577  -3.7451  -3.7422  -3.6402  -3.6374  -3.6340  -3.6290  -3.5958
    -3.5814  -3.5731  -3.5433  -3.5422  -3.5142  -3.5129  -3.4931  -3.4921
    -3.4791  -3.4760  -3.4236  -3.4223  -3.4036  -3.3897  -3.3783  -3.3765
    -3.3763  -3.3756  -3.3488  -3.3479  -3.3113  -3.3108  -3.2900  -3.2857
    -3.2568  -3.2515  -3.2382  -3.2101  -3.2088  -3.1727  -3.1725  -3.1367
    -3.1291  -3.1283  -3.1154  -3.1118  -3.1095  -3.1089  -3.0692  -3.0612
    -3.0208  -3.0205  -3.0118  -3.0027  -3.0016  -3.0015  -2.9765  -2.9760
    -2.9555  -2.9548  -2.9541  -2.9275  -2.9273  -2.9200  -2.9171  -2.9144
    -2.8804  -2.8772  -2.8433  -2.8417  -2.8407  -2.8375  -2.8358  -2.7574
    -2.7479  -2.7441  -2.7433  -2.7425  -2.7418  -2.7375  -2.7371  -2.7365
    -2.7363  -2.7265  -2.7187  -2.7028  -2.6999  -2.6989  -2.6960  -2.6841
    -2.6782  -2.6419  -2.6406  -2.6404  -2.6367  -2.6362  -2.6177  -2.6170
    -2.6090  -2.6064  -2.6058  -2.5475  -2.5459  -2.5413  -2.5407  -2.5374
    -2.5330  -2.5075  -2.4492  -2.4481  -2.4477  -2.4452  -2.4339  -2.4311
    -2.4282  -2.4165  -2.4162  -2.3808  -2.3801  -2.3743  -2.3715  -2.3709
    -2.3699  -2.3315  -2.3307  -2.3265  -2.3197  -2.3190  -2.3187  -2.2809
    -2.2748  -2.2529  -2.2091  -2.2012  -2.1963  -2.1836  -2.1766  -2.1747
    -2.1283  -2.1247  -2.1055  -2.1031  -2.0835  -2.0730  -2.0721  -2.0699
    -2.0496  -2.0483  -2.0400  -2.0213  -1.9833  -1.9790  -1.9690  -1.9686
    -1.9665  -1.9573  -1.9545  -1.9428  -1.9413  -1.9379  -1.9365  -1.9332
    -1.9316  -1.9254  -1.9191  -1.9180  -1.9012  -1.8994  -1.8990  -1.8908
    -1.8892  -1.8884  -1.8658  -1.8651  -1.8550  -1.8518  -1.8487  -1.8448
    -1.8091  -1.7760  -1.7752  -1.7396  -1.7230  -1.7220  -1.7130  -1.7067
    -1.6896  -1.6816  -1.6749  -1.6719  -1.6717  -1.6700  -1.6611  -1.6545
    -1.6354  -1.6347  -1.6345  -1.5901  -1.5895  -1.5498  -1.5464  -1.5028
    -1.4996  -1.4884  -1.4668  -1.4631  -1.4590  -1.4442  -1.4402  -1.4244
    -1.4239  -1.4201  -1.4194  -1.4186  -1.4168  -1.4127  -1.4104  -1.3939
    -1.3922  -1.3790  -1.3658  -1.3474  -1.3427  -1.3206  -1.3198  -1.3183
    -1.3174  -1.3137  -1.3060  -1.2915  -1.2816  -1.2763  -1.2658  -1.2559
    -1.2512  -1.2380  -1.2350  -1.2069  -1.2058  -1.1992  -1.1944  -1.1633
    -1.1607  -1.1542  -1.1534  -1.1464  -1.1403  -1.1234  -1.1232  -1.1117
    -1.1050  -1.1037  -1.0923  -1.0920  -1.0910  -1.0816  -1.0765  -1.0661
    -1.0615  -1.0568  -1.0564  -1.0437  -1.0423  -1.0343  -1.0324  -0.9931
    -0.9926  -0.9896  -0.9847  -0.9845  -0.9845  -0.9455  -0.9297  -0.9279
    -0.9271  -0.9251  -0.9242  -0.9176  -0.9114  -0.9058  -0.9021  -0.8669
    -0.8635  -0.8585  -0.8579  -0.8361  -0.8355  -0.8259  -0.7964  -0.7887
    -0.7618  -0.7608  -0.7329  -0.7327  -0.7300  -0.7289  -0.7281  -0.7235
    -0.7189  -0.7187  -0.7146  -0.7140  -0.6825  -0.6812  -0.6668  -0.6607
    -0.6590  -0.6581  -0.6577  -0.6429  -0.6379  -0.3622  -0.3523  -0.3011
    -0.2839  -0.2556  -0.0936  -0.0311  -0.0292   0.0083   0.2865   0.2942
     0.6133   0.6286   0.7167   0.7203   0.7563   0.7646   0.8985   0.9087
     1.0266   1.0290   1.1169   1.7154   1.7316   1.7349   1.7710   1.7762
     1.8082   1.8358   1.8982   1.9087   2.1067   2.1123   2.3425   2.4172
     2.4356   2.4428   2.8088   2.8289   2.8938   2.8957   2.9013   2.9057
     3.0527   3.0554   3.0730   3.1946   3.1958   3.4272   3.4281   3.5642
     3.5862   3.5943   3.8583   3.8623   3.9702   3.9928   3.9942   4.0024
     4.0315   4.1784   4.1837   4.4143   4.4186   4.4998   4.5017   4.6058
     4.6307   4.6359   4.6412   4.6752   4.8975   5.3662   5.4248   5.5085
     5.5468   5.5551   5.5781   5.6345   5.7372   5.7438   5.7503   5.8470
     5.8605   5.9097   5.9107   5.9439   6.0189   6.0241   6.1190   6.1339
     6.1883   6.2172   6.2303   6.2379   6.2404   6.2461   6.2592   6.2622

          k =-0.2500 0.2500 0.2500 (167588 PWs)   bands (ev):

   -20.0080  -7.8143  -6.7118  -6.1831  -6.1830  -5.7534  -5.3495  -5.2513
    -5.2512  -5.0551  -5.0540  -4.9478  -4.9381  -4.8584  -4.8385  -4.7624
    -4.6779  -4.6736  -4.6368  -4.6344  -4.4879  -4.4570  -4.4561  -4.4559
    -4.4506  -4.4010  -4.3927  -4.3815  -4.3810  -4.3738  -4.3436  -4.3323
    -4.3044  -4.2892  -4.2836  -4.2558  -4.2539  -4.2035  -4.1990  -4.1905
    -4.1853  -4.1730  -4.1720  -4.1629  -4.1206  -4.1126  -4.1125  -4.1050
    -4.1034  -4.0657  -4.0248  -4.0088  -4.0076  -4.0053  -3.9973  -3.9963
    -3.9912  -3.9905  -3.9885  -3.9270  -3.9083  -3.8763  -3.8761  -3.8618
    -3.8372  -3.8331  -3.8179  -3.8145  -3.8139  -3.8080  -3.8067  -3.7579
    -3.7577  -3.7451  -3.7422  -3.6402  -3.6374  -3.6341  -3.6290  -3.5958
    -3.5814  -3.5731  -3.5433  -3.5422  -3.5142  -3.5129  -3.4931  -3.4921
    -3.4791  -3.4760  -3.4236  -3.4223  -3.4036  -3.3897  -3.3783  -3.3765
    -3.3763  -3.3756  -3.3488  -3.3479  -3.3113  -3.3108  -3.2900  -3.2857
    -3.2568  -3.2515  -3.2382  -3.2101  -3.2088  -3.1727  -3.1724  -3.1367
    -3.1291  -3.1283  -3.1154  -3.1118  -3.1095  -3.1089  -3.0692  -3.0612
    -3.0208  -3.0205  -3.0118  -3.0027  -3.0016  -3.0015  -2.9765  -2.9760
    -2.9555  -2.9548  -2.9541  -2.9275  -2.9273  -2.9199  -2.9170  -2.9144
    -2.8804  -2.8772  -2.8433  -2.8417  -2.8407  -2.8375  -2.8358  -2.7574
    -2.7479  -2.7441  -2.7433  -2.7425  -2.7418  -2.7375  -2.7371  -2.7365
    -2.7363  -2.7265  -2.7187  -2.7028  -2.6999  -2.6989  -2.6960  -2.6841
    -2.6782  -2.6419  -2.6406  -2.6404  -2.6367  -2.6362  -2.6177  -2.6170
    -2.6090  -2.6064  -2.6058  -2.5475  -2.5459  -2.5413  -2.5407  -2.5374
    -2.5330  -2.5075  -2.4492  -2.4481  -2.4477  -2.4452  -2.4339  -2.4311
    -2.4282  -2.4165  -2.4162  -2.3808  -2.3801  -2.3742  -2.3714  -2.3709
    -2.3699  -2.3315  -2.3307  -2.3265  -2.3197  -2.3190  -2.3187  -2.2809
    -2.2748  -2.2529  -2.2091  -2.2012  -2.1963  -2.1836  -2.1766  -2.1747
    -2.1283  -2.1247  -2.1055  -2.1031  -2.0835  -2.0730  -2.0721  -2.0699
    -2.0496  -2.0483  -2.0400  -2.0213  -1.9833  -1.9790  -1.9690  -1.9686
    -1.9665  -1.9573  -1.9545  -1.9428  -1.9413  -1.9379  -1.9365  -1.9332
    -1.9316  -1.9254  -1.9191  -1.9180  -1.9012  -1.8994  -1.8991  -1.8908
    -1.8892  -1.8884  -1.8658  -1.8651  -1.8550  -1.8518  -1.8487  -1.8448
    -1.8092  -1.7760  -1.7752  -1.7396  -1.7230  -1.7220  -1.7130  -1.7067
    -1.6896  -1.6815  -1.6749  -1.6719  -1.6717  -1.6700  -1.6611  -1.6545
    -1.6354  -1.6347  -1.6345  -1.5901  -1.5895  -1.5498  -1.5464  -1.5028
    -1.4996  -1.4885  -1.4668  -1.4631  -1.4590  -1.4442  -1.4402  -1.4244
    -1.4239  -1.4201  -1.4194  -1.4186  -1.4168  -1.4127  -1.4104  -1.3939
    -1.3922  -1.3790  -1.3658  -1.3474  -1.3427  -1.3206  -1.3198  -1.3183
    -1.3174  -1.3137  -1.3060  -1.2915  -1.2816  -1.2763  -1.2659  -1.2559
    -1.2512  -1.2380  -1.2350  -1.2069  -1.2058  -1.1992  -1.1944  -1.1633
    -1.1607  -1.1542  -1.1534  -1.1464  -1.1403  -1.1234  -1.1232  -1.1117
    -1.1050  -1.1037  -1.0923  -1.0919  -1.0910  -1.0816  -1.0765  -1.0661
    -1.0616  -1.0568  -1.0564  -1.0437  -1.0423  -1.0343  -1.0324  -0.9931
    -0.9926  -0.9896  -0.9847  -0.9845  -0.9845  -0.9455  -0.9297  -0.9279
    -0.9271  -0.9251  -0.9242  -0.9176  -0.9114  -0.9057  -0.9021  -0.8669
    -0.8635  -0.8585  -0.8579  -0.8361  -0.8355  -0.8259  -0.7964  -0.7887
    -0.7618  -0.7608  -0.7329  -0.7327  -0.7300  -0.7289  -0.7281  -0.7235
    -0.7189  -0.7187  -0.7146  -0.7140  -0.6825  -0.6812  -0.6668  -0.6607
    -0.6590  -0.6581  -0.6577  -0.6429  -0.6378  -0.3622  -0.3523  -0.3011
    -0.2839  -0.2556  -0.0935  -0.0311  -0.0292   0.0083   0.2865   0.2942
     0.6133   0.6286   0.7167   0.7203   0.7563   0.7646   0.8985   0.9087
     1.0266   1.0290   1.1169   1.7154   1.7316   1.7349   1.7710   1.7762
     1.8082   1.8358   1.8982   1.9087   2.1067   2.1123   2.3425   2.4172
     2.4356   2.4428   2.8088   2.8289   2.8938   2.8957   2.9013   2.9057
     3.0527   3.0554   3.0730   3.1946   3.1958   3.4272   3.4282   3.5642
     3.5862   3.5943   3.8583   3.8623   3.9702   3.9928   3.9942   4.0025
     4.0316   4.1784   4.1837   4.4143   4.4186   4.4998   4.5017   4.6052
     4.6307   4.6359   4.6412   4.6751   4.8956   5.3660   5.4081   5.4954
     5.5407   5.5548   5.5720   5.7328   5.7372   5.7430   5.7501   5.8462
     5.8611   5.9096   5.9112   5.9445   5.9978   6.0357   6.0810   6.1986
     6.2132   6.2172   6.2218   6.2333   6.2459   6.2506   6.2622   6.2657

     the Fermi energy is     0.9784 ev

!    total energy              =   -7425.29118961 Ry
     Harris-Foulkes estimate   =   -7425.29118962 Ry
     estimated scf accuracy    <          1.6E-09 Ry

     The total energy is the sum of the following terms:

     one-electron contribution =  -48851.89487566 Ry
     hartree contribution      =   24979.86485742 Ry
     xc contribution           =   -3604.22953536 Ry
     ewald contribution        =   20050.97127162 Ry
     smearing contrib. (-TS)   =      -0.00290763 Ry

     convergence has been achieved in  26 iterations

     Writing output data file 4265431.save

     init_run     :    151.79s CPU    157.30s WALL (       1 calls)
     electrons    :   9072.14s CPU   9402.21s WALL (       1 calls)

     Called by init_run:
     wfcinit      :    114.40s CPU    119.18s WALL (       1 calls)
     potinit      :      8.00s CPU      8.33s WALL (       1 calls)

     Called by electrons:
     c_bands      :   7286.26s CPU   7551.09s WALL (      27 calls)
     sum_band     :   1165.19s CPU   1215.75s WALL (      27 calls)
     v_of_rho     :    133.19s CPU    142.83s WALL (      27 calls)
     newd         :    503.09s CPU    507.41s WALL (      27 calls)
     mix_rho      :      3.49s CPU      3.90s WALL (      27 calls)
     vdW_energy   :      8.33s CPU      8.81s WALL (      27 calls)
     vdW_ffts     :     72.57s CPU     77.76s WALL (      54 calls)
     vdW_v        :     16.11s CPU     16.88s WALL (      27 calls)

     Called by c_bands:
     init_us_2    :     10.37s CPU     10.59s WALL (     330 calls)
     cegterg      :   7209.25s CPU   7473.13s WALL (     162 calls)

     Called by *egterg:
     h_psi        :   2867.65s CPU   3100.72s WALL (     829 calls)
     s_psi        :    579.76s CPU    581.83s WALL (     829 calls)
     g_psi        :      5.90s CPU      5.87s WALL (     661 calls)
     cdiaghg      :   2082.02s CPU   2087.43s WALL (     817 calls)

     Called by h_psi:
     add_vuspsi   :    579.86s CPU    582.07s WALL (     829 calls)

     General routines
     calbec       :    847.08s CPU    849.47s WALL (     991 calls)
     fft          :    266.62s CPU    276.33s WALL (    1782 calls)
     ffts         :      2.02s CPU      2.25s WALL (      54 calls)
     fftw         :   1968.99s CPU   2227.58s WALL (  438328 calls)
     interpolate  :      5.36s CPU      5.95s WALL (      54 calls)
     davcio       :      0.00s CPU      0.12s WALL (       6 calls)

     Parallel routines
     fft_scatter  :   1405.30s CPU   1623.53s WALL (  440164 calls)

     PWSCF        :     2h33m CPU        2h39m WALL


   This run was terminated on:   2:10: 6   3Jul2015            

=------------------------------------------------------------------------------=
   JOB DONE.
=------------------------------------------------------------------------------=
