Setting SGE environment for SCC

     Program PWSCF v.5.1.2 starts on 24Aug2015 at 10:35:19 

     This program is part of the open-source Quantum ESPRESSO suite
     for quantum simulation of materials; please cite
         "P. Giannozzi et al., J. Phys.:Condens. Matter 21 395502 (2009);
          URL http://www.quantum-espresso.org", 
     in publications or presentations arising from this work. More details at
     http://www.quantum-espresso.org/quote

     Parallel version (MPI), running on    32 processors
     R & G space division:  proc/nbgrp/npool/nimage =      32
     Reading input from hollow.H2.Au5859.d.2.3.phi.45.psi.90.in
Warning: card &IONS ignored
Warning: card / ignored
Warning: card &CELL ignored
Warning: card / ignored

     Current dimensions of program PWSCF are:
     Max number of different atomic species (ntypx) = 10
     Max number of k-points (npk) =  40000
     Max angular momentum in pseudopotentials (lmaxx) =  3

     IMPORTANT: XC functional enforced from input :
     Exchange-correlation      = VDW-DF ( 1  4  4  0 1 0)
     Any further DFT definition will be discarded
     Please, verify this is what you really want


     Subspace diagonalization in iterative solution of the eigenvalue problem:
     a serial algorithm will be used


     Parallelization info
     --------------------
     sticks:   dense  smooth     PW     G-vecs:    dense   smooth      PW
     Min         578     289     74               118518    41891    5486
     Max         579     290     75               118533    41932    5497
     Sum       18505    9265   2385              3792731  1341081  175711


     Title: 
     hollow.H2.Au5859.d.2.3.phi.45.psi.90                                       


     bravais-lattice index     =            8
     lattice parameter (alat)  =      24.1233  a.u.
     unit-cell volume          =   28076.2361 (a.u.)^3
     number of atoms/cell      =           75
     number of atomic types    =            3
     number of electrons       =       800.00
     number of Kohn-Sham states=          480
     kinetic-energy cutoff     =      50.0000  Ry
     charge density cutoff     =     400.0000  Ry
     convergence threshold     =      1.0E-08
     mixing beta               =       0.7000
     number of iterations used =            8  plain     mixing
     Exchange-correlation      = VDW-DF ( 1  4  4  0 1 0)

     celldm(1)=  24.123277  celldm(2)=   1.000000  celldm(3)=   2.000000
     celldm(4)=   0.000000  celldm(5)=   0.000000  celldm(6)=   0.000000

     crystal axes: (cart. coord. in units of alat)
               a(1) = (   1.000000   0.000000   0.000000 )  
               a(2) = (   0.000000   1.000000   0.000000 )  
               a(3) = (   0.000000   0.000000   2.000000 )  

     reciprocal axes: (cart. coord. in units 2 pi/alat)
               b(1) = (  1.000000  0.000000  0.000000 )  
               b(2) = (  0.000000  1.000000  0.000000 )  
               b(3) = (  0.000000  0.000000  0.500000 )  


     PseudoPot. # 1 for Au read from file:
     /home/scc/andrejb/qe/pseudo/Au.pbe-nd-van.UPF
     MD5 check sum: 458681b50f36d87ef23c61b04bba420a
     Pseudo is Ultrasoft + core correction, Zval = 11.0
     Generated by new atomic code, or converted to UPF format
     Using radial grid of  985 points,  3 beta functions with: 
                l(1) =   1
                l(2) =   2
                l(3) =   2
     Q(r) pseudized with  8 coefficients,  rinner =    1.100   1.100   1.100
                                                       1.100   1.100

     PseudoPot. # 2 for H  read from file:
     /home/scc/andrejb/qe/pseudo/H.pbe-van_ak.UPF
     MD5 check sum: 403db7282739603aa925980fa9b8608d
     Pseudo is Ultrasoft, Zval =  1.0
     Generated by new atomic code, or converted to UPF format
     Using radial grid of  615 points,  1 beta functions with: 
                l(1) =   0
     Q(r) pseudized with  8 coefficients,  rinner =    0.800

     PseudoPot. # 3 for O  read from file:
     /home/scc/andrejb/qe/pseudo/O.pbe-van_ak.UPF
     MD5 check sum: 4b8c549914a63cae506c6ff22b5af4fe
     Pseudo is Ultrasoft, Zval =  6.0
     Generated by new atomic code, or converted to UPF format
     Using radial grid of  737 points,  4 beta functions with: 
                l(1) =   0
                l(2) =   0
                l(3) =   1
                l(4) =   1
     Q(r) pseudized with  8 coefficients,  rinner =    0.800   0.800   0.800


     vdW kernel table read from file vdW_kernel_table
     MD5 check sum: 48e77a2e26edf626eeb0eaa751ad5cac

     atomic species   valence    mass     pseudopotential
        Au            11.00   196.96657     Au( 1.00)
        H              1.00     1.01000     H ( 1.00)
        O              6.00    16.00000     O ( 1.00)

     No symmetry found



   Cartesian axes

     site n.     atom                  positions (alat units)
         1           O   tau(   1) = (   0.1686617   0.0937550   0.7020317  )
         2           H   tau(   2) = (   0.1666051   0.1666105   0.6794873  )
         3           H   tau(   3) = (   0.1627583   0.0535643   0.6374694  )
         4           Au  tau(   4) = (   0.0000000   0.0000000   0.0000000  )
         5           Au  tau(   5) = (   0.3332217   0.0000000   0.0000000  )
         6           Au  tau(   6) = (   0.6664434   0.0000000   0.0000000  )
         7           Au  tau(   7) = (   0.1666109   0.1666109   0.0000000  )
         8           Au  tau(   8) = (   0.4998326   0.1666109   0.0000000  )
         9           Au  tau(   9) = (   0.8330542   0.1666109   0.0000000  )
        10           Au  tau(  10) = (   0.0000000   0.3332217   0.0000000  )
        11           Au  tau(  11) = (   0.3332217   0.3332217   0.0000000  )
        12           Au  tau(  12) = (   0.6664434   0.3332217   0.0000000  )
        13           Au  tau(  13) = (   0.1666109   0.4998326   0.0000000  )
        14           Au  tau(  14) = (   0.4998326   0.4998326   0.0000000  )
        15           Au  tau(  15) = (   0.8330542   0.4998326   0.0000000  )
        16           Au  tau(  16) = (   0.0000000   0.6664434   0.0000000  )
        17           Au  tau(  17) = (   0.3332217   0.6664434   0.0000000  )
        18           Au  tau(  18) = (   0.6664434   0.6664434   0.0000000  )
        19           Au  tau(  19) = (   0.1666109   0.8330542   0.0000000  )
        20           Au  tau(  20) = (   0.4998326   0.8330542   0.0000000  )
        21           Au  tau(  21) = (   0.8330542   0.8330542   0.0000000  )
        22           Au  tau(  22) = (   0.1666109   0.0000000   0.1666109  )
        23           Au  tau(  23) = (   0.4998326   0.0000000   0.1666109  )
        24           Au  tau(  24) = (   0.8330542   0.0000000   0.1666109  )
        25           Au  tau(  25) = (   0.0000000   0.1666109   0.1666109  )
        26           Au  tau(  26) = (   0.3332217   0.1666109   0.1666109  )
        27           Au  tau(  27) = (   0.6664434   0.1666109   0.1666109  )
        28           Au  tau(  28) = (   0.1666109   0.3332217   0.1666109  )
        29           Au  tau(  29) = (   0.4998326   0.3332217   0.1666109  )
        30           Au  tau(  30) = (   0.8330542   0.3332217   0.1666109  )
        31           Au  tau(  31) = (   0.0000000   0.4998326   0.1666109  )
        32           Au  tau(  32) = (   0.3332217   0.4998326   0.1666109  )
        33           Au  tau(  33) = (   0.6664434   0.4998326   0.1666109  )
        34           Au  tau(  34) = (   0.1666109   0.6664434   0.1666109  )
        35           Au  tau(  35) = (   0.4998326   0.6664434   0.1666109  )
        36           Au  tau(  36) = (   0.8330542   0.6664434   0.1666109  )
        37           Au  tau(  37) = (   0.0000000   0.8330542   0.1666109  )
        38           Au  tau(  38) = (   0.3332217   0.8330542   0.1666109  )
        39           Au  tau(  39) = (   0.6664434   0.8330542   0.1666109  )
        40           Au  tau(  40) = (  -0.0000182  -0.0000182   0.3335478  )
        41           Au  tau(  41) = (   0.3332215  -0.0000181   0.3335473  )
        42           Au  tau(  42) = (   0.6664447  -0.0000183   0.3335481  )
        43           Au  tau(  43) = (  -0.0000181   0.3332215   0.3335473  )
        44           Au  tau(  44) = (   0.3332215   0.3332215   0.3335468  )
        45           Au  tau(  45) = (   0.6664445   0.3332215   0.3335477  )
        46           Au  tau(  46) = (  -0.0000183   0.6664447   0.3335481  )
        47           Au  tau(  47) = (   0.3332215   0.6664445   0.3335477  )
        48           Au  tau(  48) = (   0.6664446   0.6664446   0.3335486  )
        49           Au  tau(  49) = (   0.1666097   0.1666097   0.3335483  )
        50           Au  tau(  50) = (   0.4998320   0.1666098   0.3335477  )
        51           Au  tau(  51) = (   0.8330732   0.1666096   0.3335480  )
        52           Au  tau(  52) = (   0.1666098   0.4998320   0.3335477  )
        53           Au  tau(  53) = (   0.4998322   0.4998322   0.3335470  )
        54           Au  tau(  54) = (   0.8330731   0.4998322   0.3335474  )
        55           Au  tau(  55) = (   0.1666096   0.8330732   0.3335480  )
        56           Au  tau(  56) = (   0.4998322   0.8330731   0.3335474  )
        57           Au  tau(  57) = (   0.8330731   0.8330731   0.3335478  )
        58           Au  tau(  58) = (   0.1666104  -0.0000111   0.4993095  )
        59           Au  tau(  59) = (   0.4998323  -0.0000112   0.4993099  )
        60           Au  tau(  60) = (   0.8330660  -0.0000111   0.4993009  )
        61           Au  tau(  61) = (  -0.0000111   0.1666104   0.4993095  )
        62           Au  tau(  62) = (   0.3332213   0.1666106   0.4993185  )
        63           Au  tau(  63) = (   0.6664437   0.1666106   0.4993187  )
        64           Au  tau(  64) = (   0.1666106   0.3332213   0.4993185  )
        65           Au  tau(  65) = (   0.4998324   0.3332216   0.4993185  )
        66           Au  tau(  66) = (   0.8330658   0.3332215   0.4993102  )
        67           Au  tau(  67) = (  -0.0000112   0.4998323   0.4993099  )
        68           Au  tau(  68) = (   0.3332216   0.4998324   0.4993185  )
        69           Au  tau(  69) = (   0.6664437   0.4998325   0.4993187  )
        70           Au  tau(  70) = (   0.1666106   0.6664437   0.4993187  )
        71           Au  tau(  71) = (   0.4998325   0.6664437   0.4993187  )
        72           Au  tau(  72) = (   0.8330658   0.6664438   0.4993102  )
        73           Au  tau(  73) = (  -0.0000111   0.8330660   0.4993009  )
        74           Au  tau(  74) = (   0.3332215   0.8330658   0.4993102  )
        75           Au  tau(  75) = (   0.6664438   0.8330658   0.4993102  )

     number of k points=     6  Marzari-Vanderbilt smearing, width (Ry)=  0.0200
                       cart. coord. in units 2pi/alat
        k(    1) = (   0.2500000   0.2500000   0.0833333), wk =   0.3333333
        k(    2) = (   0.2500000   0.2500000  -0.2500000), wk =   0.3333333
        k(    3) = (  -0.2500000  -0.2500000   0.0833333), wk =   0.3333333
        k(    4) = (  -0.2500000   0.2500000  -0.0833333), wk =   0.3333333
        k(    5) = (   0.2500000  -0.2500000  -0.0833333), wk =   0.3333333
        k(    6) = (  -0.2500000   0.2500000   0.2500000), wk =   0.3333333

     Dense  grid:  3792731 G-vectors     FFT dimensions: ( 160, 160, 320)

     Smooth grid:  1341081 G-vectors     FFT dimensions: ( 120, 120, 225)

     Largest allocated arrays     est. size (Mb)     dimensions
        Kohn-Sham Wavefunctions        38.58 Mb     (    5267,  480)
        NL pseudopotentials            76.03 Mb     (    5267,  946)
        Each V/rho on FFT grid          3.91 Mb     (  256000)
        Each G-vector array             0.90 Mb     (  118520)
        G-vector shells                 0.08 Mb     (   10286)
     Largest temporary arrays     est. size (Mb)     dimensions
        Auxiliary wavefunctions       154.31 Mb     (    5267, 1920)
        Each subspace H/S matrix       56.25 Mb     (    1920, 1920)
        Each <psi_i|beta_j> matrix      6.93 Mb     (     946,  480)
        Arrays for rho mixing          31.25 Mb     (  256000,    8)

     Initial potential from superposition of free atoms
     Check: negative starting charge=   -1.945196

     starting charge  799.16392, renormalised to  800.00000

     negative rho (up, down):  1.947E+00 0.000E+00


     ************************************************************************
     *
     * You are using vdW-DF for exchange-correlation in this calculation.
     * Please cite the following three references that made this development
     * possible:
     *
     *   M. Dion, H. Rydberg, E. Schroder, D. C. Langreth, and
     *   B. I. Lundqvist, Phys. Rev. Lett. 92, 246401 (2004).
     *
     *   T. Thonhauser, V. R. Cooper, S. Li, A. Puzder, P. Hyldgaard, and
     *   D. C. Langreth, Phys. Rev. B 76, 125112 (2007).
     *
     *   G. Roman-Perez and J. M. Soler, Phys. Rev. Lett. 103, 096102 (2009).
     *
     *
     * If you are using vdW-DF2, please also cite:
     *
     *   K. Lee, E. D. Murray, L. Kong, B. I. Lundqvist, and
     *   D. C. Langreth, Phys. Rev. B 82, 081101(R) (2010).
     *
     *
     * If you are calculating the stress with vdW-DF, please also cite:
     *
     *   R. Sabatini, E. Kucukbenli, B. Kolb, T. Thonhauser, and
     *   S. de Gironcoli, J. Phys.: Condens. Matter 24, 424209 (2012).
     *
     ************************************************************************

     Carrying out vdW-DF run using the following parameters:

     Nqs =      20    Nr_points =    1024   r_max =   100.000
     q_mesh =
               0.00001000     0.04494208     0.09755937     0.15916263
               0.23128650     0.31572767     0.41458969     0.53033537
               0.66584808     0.82450364     1.01025438     1.22772762
               1.48234092     1.78043706     2.12944203     2.53805004
               3.01644009     3.57652955     4.23227104     5.00000000

     Gradients computed in reciprocal space

     ************************************************************************


     Starting wfc are  654 randomized atomic wfcs

     total cpu time spent up to now is      124.8 secs

     Self-consistent Calculation

     iteration #  1     ecut=    50.00 Ry     beta=0.70
     Davidson diagonalization with overlap
     ethr =  1.00E-02,  avg # of iterations =  3.0

     Threshold (ethr) on eigenvalues was too large:
     Diagonalizing with lowered threshold

     Davidson diagonalization with overlap
     ethr =  4.06E-04,  avg # of iterations =  2.0

     negative rho (up, down):  1.947E+00 0.000E+00

     total cpu time spent up to now is      663.5 secs

     total energy              =   -7423.09490812 Ry
     Harris-Foulkes estimate   =   -7426.01839599 Ry
     estimated scf accuracy    <       3.61652942 Ry

     iteration #  2     ecut=    50.00 Ry     beta=0.70
     Davidson diagonalization with overlap
     ethr =  4.52E-04,  avg # of iterations = 11.0

     negative rho (up, down):  1.943E+00 0.000E+00

     total cpu time spent up to now is     1315.4 secs

     total energy              =   -7415.90866629 Ry
     Harris-Foulkes estimate   =   -7432.17742064 Ry
     estimated scf accuracy    <      82.88091503 Ry

     iteration #  3     ecut=    50.00 Ry     beta=0.70
     Davidson diagonalization with overlap
     ethr =  4.52E-04,  avg # of iterations =  6.0

     negative rho (up, down):  1.953E+00 0.000E+00

     total cpu time spent up to now is     1786.3 secs

     total energy              =   -7424.10518447 Ry
     Harris-Foulkes estimate   =   -7425.86927749 Ry
     estimated scf accuracy    <       7.34297777 Ry

     iteration #  4     ecut=    50.00 Ry     beta=0.70
     Davidson diagonalization with overlap
     ethr =  4.52E-04,  avg # of iterations =  3.0

     negative rho (up, down):  1.957E+00 0.000E+00

     total cpu time spent up to now is     2060.5 secs

     total energy              =   -7424.97471354 Ry
     Harris-Foulkes estimate   =   -7425.55168914 Ry
     estimated scf accuracy    <       2.37935170 Ry

     iteration #  5     ecut=    50.00 Ry     beta=0.70
     Davidson diagonalization with overlap
     ethr =  2.97E-04,  avg # of iterations =  9.8

     negative rho (up, down):  1.963E+00 0.000E+00

     total cpu time spent up to now is     2427.7 secs

     total energy              =   -7424.98813118 Ry
     Harris-Foulkes estimate   =   -7425.57432392 Ry
     estimated scf accuracy    <       4.68774225 Ry

     iteration #  6     ecut=    50.00 Ry     beta=0.70
     Davidson diagonalization with overlap
     ethr =  2.97E-04,  avg # of iterations =  4.0

     negative rho (up, down):  1.966E+00 0.000E+00

     total cpu time spent up to now is     2722.8 secs

     total energy              =   -7425.24481075 Ry
     Harris-Foulkes estimate   =   -7425.31101258 Ry
     estimated scf accuracy    <       0.28091380 Ry

     iteration #  7     ecut=    50.00 Ry     beta=0.70
     Davidson diagonalization with overlap
     ethr =  3.51E-05,  avg # of iterations =  6.5

     negative rho (up, down):  1.970E+00 0.000E+00

     total cpu time spent up to now is     3063.6 secs

     total energy              =   -7425.25267579 Ry
     Harris-Foulkes estimate   =   -7425.30051750 Ry
     estimated scf accuracy    <       0.25736061 Ry

     iteration #  8     ecut=    50.00 Ry     beta=0.70
     Davidson diagonalization with overlap
     ethr =  3.22E-05,  avg # of iterations =  5.5

     negative rho (up, down):  1.971E+00 0.000E+00

     total cpu time spent up to now is     3361.4 secs

     total energy              =   -7425.26166240 Ry
     Harris-Foulkes estimate   =   -7425.28114647 Ry
     estimated scf accuracy    <       0.08628547 Ry

     iteration #  9     ecut=    50.00 Ry     beta=0.70
     Davidson diagonalization with overlap
     ethr =  1.08E-05,  avg # of iterations =  7.5

     negative rho (up, down):  1.972E+00 0.000E+00

     total cpu time spent up to now is     3687.5 secs

     total energy              =   -7425.26232450 Ry
     Harris-Foulkes estimate   =   -7425.27270652 Ry
     estimated scf accuracy    <       0.03722491 Ry

     iteration # 10     ecut=    50.00 Ry     beta=0.70
     Davidson diagonalization with overlap
     ethr =  4.65E-06,  avg # of iterations =  4.5

     negative rho (up, down):  1.972E+00 0.000E+00

     total cpu time spent up to now is     3982.2 secs

     total energy              =   -7425.26376349 Ry
     Harris-Foulkes estimate   =   -7425.26681074 Ry
     estimated scf accuracy    <       0.00953069 Ry

     iteration # 11     ecut=    50.00 Ry     beta=0.70
     Davidson diagonalization with overlap
     ethr =  1.19E-06,  avg # of iterations =  7.7

     negative rho (up, down):  1.973E+00 0.000E+00

     total cpu time spent up to now is     4305.4 secs

     total energy              =   -7425.26413952 Ry
     Harris-Foulkes estimate   =   -7425.26531396 Ry
     estimated scf accuracy    <       0.00380148 Ry

     iteration # 12     ecut=    50.00 Ry     beta=0.70
     Davidson diagonalization with overlap
     ethr =  4.75E-07,  avg # of iterations =  2.7

     negative rho (up, down):  1.974E+00 0.000E+00

     total cpu time spent up to now is     4583.7 secs

     total energy              =   -7425.26380263 Ry
     Harris-Foulkes estimate   =   -7425.26472588 Ry
     estimated scf accuracy    <       0.00184506 Ry

     iteration # 13     ecut=    50.00 Ry     beta=0.70
     Davidson diagonalization with overlap
     ethr =  2.31E-07,  avg # of iterations =  4.3

     negative rho (up, down):  1.974E+00 0.000E+00

     total cpu time spent up to now is     4962.5 secs

     total energy              =   -7425.26297303 Ry
     Harris-Foulkes estimate   =   -7425.26592767 Ry
     estimated scf accuracy    <       0.01604749 Ry

     iteration # 14     ecut=    50.00 Ry     beta=0.70
     Davidson diagonalization with overlap
     ethr =  2.31E-07,  avg # of iterations =  3.0

     negative rho (up, down):  1.974E+00 0.000E+00

     total cpu time spent up to now is     5286.5 secs

     total energy              =   -7425.26432930 Ry
     Harris-Foulkes estimate   =   -7425.26445297 Ry
     estimated scf accuracy    <       0.00033091 Ry

     iteration # 15     ecut=    50.00 Ry     beta=0.70
     Davidson diagonalization with overlap
     ethr =  4.14E-08,  avg # of iterations =  3.0

     negative rho (up, down):  1.974E+00 0.000E+00

     total cpu time spent up to now is     5605.9 secs

     total energy              =   -7425.26423050 Ry
     Harris-Foulkes estimate   =   -7425.26455431 Ry
     estimated scf accuracy    <       0.00203736 Ry

     iteration # 16     ecut=    50.00 Ry     beta=0.70
     Davidson diagonalization with overlap
     ethr =  4.14E-08,  avg # of iterations =  2.0

     negative rho (up, down):  1.973E+00 0.000E+00

     total cpu time spent up to now is     5881.8 secs

     total energy              =   -7425.26432087 Ry
     Harris-Foulkes estimate   =   -7425.26451337 Ry
     estimated scf accuracy    <       0.00145415 Ry

     iteration # 17     ecut=    50.00 Ry     beta=0.70
     Davidson diagonalization with overlap
     ethr =  4.14E-08,  avg # of iterations =  2.0

     negative rho (up, down):  1.973E+00 0.000E+00

     total cpu time spent up to now is     6139.0 secs

     total energy              =   -7425.26439679 Ry
     Harris-Foulkes estimate   =   -7425.26443357 Ry
     estimated scf accuracy    <       0.00017228 Ry

     iteration # 18     ecut=    50.00 Ry     beta=0.70
     Davidson diagonalization with overlap
     ethr =  2.15E-08,  avg # of iterations =  2.0

     negative rho (up, down):  1.973E+00 0.000E+00

     total cpu time spent up to now is     6394.7 secs

     total energy              =   -7425.26441523 Ry
     Harris-Foulkes estimate   =   -7425.26441893 Ry
     estimated scf accuracy    <       0.00001480 Ry

     iteration # 19     ecut=    50.00 Ry     beta=0.70
     Davidson diagonalization with overlap
     ethr =  1.85E-09,  avg # of iterations =  2.0

     negative rho (up, down):  1.973E+00 0.000E+00

     total cpu time spent up to now is     6659.5 secs

     total energy              =   -7425.26441675 Ry
     Harris-Foulkes estimate   =   -7425.26441824 Ry
     estimated scf accuracy    <       0.00000522 Ry

     iteration # 20     ecut=    50.00 Ry     beta=0.70
     Davidson diagonalization with overlap
     ethr =  6.52E-10,  avg # of iterations =  2.0

     negative rho (up, down):  1.973E+00 0.000E+00

     total cpu time spent up to now is     6920.3 secs

     total energy              =   -7425.26441736 Ry
     Harris-Foulkes estimate   =   -7425.26441804 Ry
     estimated scf accuracy    <       0.00000242 Ry

     iteration # 21     ecut=    50.00 Ry     beta=0.70
     Davidson diagonalization with overlap
     ethr =  3.02E-10,  avg # of iterations =  2.0

     negative rho (up, down):  1.973E+00 0.000E+00

     total cpu time spent up to now is     7178.6 secs

     total energy              =   -7425.26441769 Ry
     Harris-Foulkes estimate   =   -7425.26441780 Ry
     estimated scf accuracy    <       0.00000034 Ry

     iteration # 22     ecut=    50.00 Ry     beta=0.70
     Davidson diagonalization with overlap
     ethr =  4.27E-11,  avg # of iterations =  3.0

     negative rho (up, down):  1.973E+00 0.000E+00

     total cpu time spent up to now is     7488.8 secs

     total energy              =   -7425.26441775 Ry
     Harris-Foulkes estimate   =   -7425.26441780 Ry
     estimated scf accuracy    <       0.00000021 Ry

     iteration # 23     ecut=    50.00 Ry     beta=0.70
     Davidson diagonalization with overlap
     ethr =  2.67E-11,  avg # of iterations =  2.3

     negative rho (up, down):  1.973E+00 0.000E+00

     total cpu time spent up to now is     7762.7 secs

     total energy              =   -7425.26441775 Ry
     Harris-Foulkes estimate   =   -7425.26441782 Ry
     estimated scf accuracy    <       0.00000030 Ry

     iteration # 24     ecut=    50.00 Ry     beta=0.70
     Davidson diagonalization with overlap
     ethr =  2.67E-11,  avg # of iterations =  2.0

     negative rho (up, down):  1.973E+00 0.000E+00

     total cpu time spent up to now is     7991.8 secs

     total energy              =   -7425.26441779 Ry
     Harris-Foulkes estimate   =   -7425.26441779 Ry
     estimated scf accuracy    <       0.00000006 Ry

     iteration # 25     ecut=    50.00 Ry     beta=0.70
     Davidson diagonalization with overlap
     ethr =  7.20E-12,  avg # of iterations =  2.0

     negative rho (up, down):  1.973E+00 0.000E+00

     total cpu time spent up to now is     8238.4 secs

     total energy              =   -7425.26441779 Ry
     Harris-Foulkes estimate   =   -7425.26441780 Ry
     estimated scf accuracy    <       0.00000002 Ry

     iteration # 26     ecut=    50.00 Ry     beta=0.70
     Davidson diagonalization with overlap
     ethr =  2.49E-12,  avg # of iterations =  2.0

     negative rho (up, down):  1.973E+00 0.000E+00

     total cpu time spent up to now is     8499.6 secs

     total energy              =   -7425.26441779 Ry
     Harris-Foulkes estimate   =   -7425.26441780 Ry
     estimated scf accuracy    <       0.00000004 Ry

     iteration # 27     ecut=    50.00 Ry     beta=0.70
     Davidson diagonalization with overlap
     ethr =  2.49E-12,  avg # of iterations =  2.0

     negative rho (up, down):  1.973E+00 0.000E+00

     total cpu time spent up to now is     8751.1 secs

     total energy              =   -7425.26441780 Ry
     Harris-Foulkes estimate   =   -7425.26441780 Ry
     estimated scf accuracy    <       0.00000002 Ry

     iteration # 28     ecut=    50.00 Ry     beta=0.70
     Davidson diagonalization with overlap
     ethr =  1.97E-12,  avg # of iterations =  2.0

     negative rho (up, down):  1.973E+00 0.000E+00

     total cpu time spent up to now is     9003.6 secs

     End of self-consistent calculation

          k = 0.2500 0.2500 0.0833 (167653 PWs)   bands (ev):

   -19.3422  -7.4619  -6.9117  -6.3856  -6.3830  -5.9550  -5.5507  -5.4544
    -5.4518  -5.2578  -5.2562  -5.1488  -5.1377  -5.0610  -5.0395  -4.9648
    -4.8813  -4.8755  -4.8388  -4.8366  -4.6805  -4.6610  -4.6598  -4.6572
    -4.6508  -4.5972  -4.5959  -4.5851  -4.5827  -4.5467  -4.5423  -4.5329
    -4.4930  -4.4916  -4.4595  -4.4580  -4.4195  -4.4044  -4.3986  -4.3938
    -4.3874  -4.3753  -4.3744  -4.3406  -4.3178  -4.3153  -4.3088  -4.3074
    -4.2810  -4.2328  -4.2228  -4.2119  -4.2095  -4.2084  -4.1997  -4.1953
    -4.1940  -4.1923  -4.1440  -4.1278  -4.0881  -4.0773  -4.0697  -4.0471
    -4.0416  -4.0262  -4.0191  -4.0160  -4.0146  -4.0102  -3.9652  -3.9605
    -3.9520  -3.9467  -3.9010  -3.8441  -3.8410  -3.8344  -3.8151  -3.7984
    -3.7748  -3.7634  -3.7463  -3.7312  -3.7147  -3.7117  -3.6956  -3.6921
    -3.6819  -3.6782  -3.6262  -3.6242  -3.6022  -3.5893  -3.5848  -3.5784
    -3.5774  -3.5674  -3.5521  -3.5476  -3.5153  -3.5103  -3.4936  -3.4816
    -3.4585  -3.4474  -3.4446  -3.4131  -3.4062  -3.3781  -3.3746  -3.3383
    -3.3314  -3.3300  -3.3173  -3.3141  -3.3111  -3.3051  -3.2761  -3.2617
    -3.2261  -3.2228  -3.2145  -3.2077  -3.2042  -3.2022  -3.1815  -3.1798
    -3.1632  -3.1598  -3.1555  -3.1321  -3.1299  -3.1234  -3.1195  -3.1140
    -3.0841  -3.0817  -3.0501  -3.0438  -3.0428  -3.0403  -3.0383  -2.9598
    -2.9575  -2.9513  -2.9483  -2.9447  -2.9441  -2.9417  -2.9385  -2.9375
    -2.9372  -2.9289  -2.9208  -2.9095  -2.9028  -2.8994  -2.8948  -2.8874
    -2.8792  -2.8477  -2.8455  -2.8432  -2.8380  -2.8369  -2.8214  -2.8193
    -2.8126  -2.8097  -2.8077  -2.7543  -2.7494  -2.7460  -2.7433  -2.7406
    -2.7321  -2.7100  -2.6559  -2.6542  -2.6512  -2.6467  -2.6375  -2.6357
    -2.6325  -2.6225  -2.6175  -2.5985  -2.5817  -2.5794  -2.5767  -2.5714
    -2.5688  -2.5373  -2.5346  -2.5271  -2.5237  -2.5211  -2.5191  -2.4771
    -2.4668  -2.4536  -2.4099  -2.4030  -2.3960  -2.3863  -2.3789  -2.3717
    -2.3333  -2.3282  -2.3080  -2.3009  -2.2808  -2.2789  -2.2721  -2.2560
    -2.2514  -2.2449  -2.2276  -2.2086  -2.1892  -2.1756  -2.1701  -2.1684
    -2.1663  -2.1598  -2.1573  -2.1454  -2.1423  -2.1413  -2.1372  -2.1320
    -2.1310  -2.1262  -2.1205  -2.1076  -2.1028  -2.1012  -2.0956  -2.0940
    -2.0897  -2.0742  -2.0674  -2.0589  -2.0570  -2.0492  -2.0456  -2.0127
    -1.9833  -1.9777  -1.9440  -1.9355  -1.9269  -1.9209  -1.9115  -1.9002
    -1.8906  -1.8815  -1.8773  -1.8756  -1.8732  -1.8707  -1.8638  -1.8388
    -1.8372  -1.8359  -1.7994  -1.7930  -1.7592  -1.7497  -1.7132  -1.7057
    -1.6943  -1.6839  -1.6714  -1.6695  -1.6611  -1.6458  -1.6380  -1.6318
    -1.6257  -1.6220  -1.6206  -1.6196  -1.6171  -1.6143  -1.5995  -1.5932
    -1.5843  -1.5708  -1.5636  -1.5537  -1.5379  -1.5246  -1.5212  -1.5188
    -1.5167  -1.5116  -1.4972  -1.4894  -1.4777  -1.4706  -1.4624  -1.4574
    -1.4455  -1.4389  -1.4178  -1.4124  -1.4060  -1.4000  -1.3874  -1.3642
    -1.3608  -1.3574  -1.3547  -1.3497  -1.3311  -1.3255  -1.3223  -1.3171
    -1.3088  -1.3018  -1.2984  -1.2923  -1.2915  -1.2813  -1.2796  -1.2680
    -1.2624  -1.2590  -1.2536  -1.2469  -1.2406  -1.2379  -1.2181  -1.1979
    -1.1942  -1.1920  -1.1858  -1.1847  -1.1695  -1.1514  -1.1309  -1.1293
    -1.1285  -1.1267  -1.1219  -1.1196  -1.1127  -1.1042  -1.0839  -1.0701
    -1.0621  -1.0608  -1.0565  -1.0406  -1.0384  -1.0284  -1.0024  -0.9911
    -0.9693  -0.9622  -0.9378  -0.9371  -0.9326  -0.9317  -0.9284  -0.9231
    -0.9219  -0.9214  -0.9159  -0.9139  -0.8859  -0.8842  -0.8647  -0.8637
    -0.8598  -0.8593  -0.8545  -0.8419  -0.8370  -0.5734  -0.5511  -0.4925
    -0.4840  -0.4588  -0.2962  -0.2341  -0.2322  -0.1901   0.0868   0.0917
     0.4190   0.4241   0.5141   0.5167   0.5568   0.5584   0.7047   0.7084
     0.8216   0.8275   0.9261   1.5143   1.5280   1.5306   1.5671   1.5753
     1.6249   1.6336   1.6977   1.7037   1.9037   1.9079   2.1493   2.2211
     2.2242   2.2384   2.6233   2.6248   2.6887   2.6919   2.6983   2.7016
     2.8491   2.8513   2.9177   2.9969   3.0019   3.2251   3.2292   3.3582
     3.3812   3.3907   3.6554   3.6647   3.7751   3.7906   3.7925   3.8807
     3.8977   3.9738   3.9805   4.2063   4.2172   4.3090   4.3114   4.4195
     4.4276   4.4565   4.4596   4.6389   5.2631   5.2892   5.3543   5.3636
     5.3796   5.5302   5.5431   5.6130   5.6559   5.6605   5.6782   5.7028
     5.7084   5.7276   5.7522   5.7569   6.0144   6.0285   6.0425   6.0461
     6.0542   6.0577   6.0638   6.0677   6.1444   6.1711   6.1810   6.1922

          k = 0.2500 0.2500-0.2500 (167588 PWs)   bands (ev):

   -19.3422  -7.4619  -6.9117  -6.3856  -6.3830  -5.9550  -5.5507  -5.4544
    -5.4518  -5.2578  -5.2562  -5.1488  -5.1377  -5.0610  -5.0395  -4.9648
    -4.8813  -4.8755  -4.8388  -4.8366  -4.6805  -4.6610  -4.6598  -4.6572
    -4.6508  -4.5972  -4.5959  -4.5851  -4.5827  -4.5467  -4.5423  -4.5329
    -4.4930  -4.4916  -4.4595  -4.4580  -4.4195  -4.4044  -4.3986  -4.3938
    -4.3874  -4.3753  -4.3744  -4.3406  -4.3178  -4.3153  -4.3088  -4.3074
    -4.2810  -4.2328  -4.2228  -4.2119  -4.2095  -4.2084  -4.1997  -4.1953
    -4.1940  -4.1923  -4.1440  -4.1278  -4.0881  -4.0773  -4.0697  -4.0471
    -4.0416  -4.0262  -4.0191  -4.0160  -4.0146  -4.0102  -3.9652  -3.9605
    -3.9520  -3.9467  -3.9010  -3.8441  -3.8410  -3.8344  -3.8152  -3.7984
    -3.7748  -3.7634  -3.7463  -3.7312  -3.7147  -3.7117  -3.6956  -3.6921
    -3.6819  -3.6782  -3.6262  -3.6242  -3.6022  -3.5893  -3.5848  -3.5784
    -3.5774  -3.5674  -3.5521  -3.5476  -3.5153  -3.5103  -3.4936  -3.4816
    -3.4585  -3.4474  -3.4446  -3.4130  -3.4062  -3.3781  -3.3746  -3.3383
    -3.3314  -3.3300  -3.3173  -3.3141  -3.3111  -3.3051  -3.2762  -3.2617
    -3.2261  -3.2228  -3.2145  -3.2077  -3.2042  -3.2022  -3.1815  -3.1798
    -3.1632  -3.1598  -3.1555  -3.1321  -3.1299  -3.1234  -3.1195  -3.1140
    -3.0841  -3.0817  -3.0501  -3.0438  -3.0428  -3.0403  -3.0383  -2.9598
    -2.9575  -2.9513  -2.9484  -2.9447  -2.9441  -2.9417  -2.9385  -2.9375
    -2.9372  -2.9289  -2.9208  -2.9095  -2.9028  -2.8994  -2.8948  -2.8874
    -2.8792  -2.8477  -2.8455  -2.8432  -2.8380  -2.8369  -2.8214  -2.8193
    -2.8126  -2.8097  -2.8077  -2.7543  -2.7494  -2.7460  -2.7433  -2.7406
    -2.7321  -2.7100  -2.6559  -2.6542  -2.6512  -2.6467  -2.6375  -2.6357
    -2.6325  -2.6225  -2.6175  -2.5985  -2.5816  -2.5794  -2.5767  -2.5714
    -2.5688  -2.5373  -2.5346  -2.5271  -2.5237  -2.5211  -2.5191  -2.4771
    -2.4668  -2.4536  -2.4099  -2.4030  -2.3960  -2.3863  -2.3789  -2.3717
    -2.3333  -2.3282  -2.3080  -2.3009  -2.2808  -2.2789  -2.2721  -2.2560
    -2.2514  -2.2449  -2.2276  -2.2085  -2.1892  -2.1756  -2.1701  -2.1684
    -2.1663  -2.1598  -2.1573  -2.1454  -2.1423  -2.1413  -2.1372  -2.1320
    -2.1310  -2.1262  -2.1205  -2.1076  -2.1028  -2.1012  -2.0956  -2.0940
    -2.0897  -2.0742  -2.0674  -2.0589  -2.0570  -2.0491  -2.0456  -2.0127
    -1.9833  -1.9777  -1.9440  -1.9355  -1.9269  -1.9209  -1.9115  -1.9002
    -1.8906  -1.8815  -1.8773  -1.8756  -1.8732  -1.8707  -1.8638  -1.8388
    -1.8372  -1.8359  -1.7994  -1.7930  -1.7592  -1.7497  -1.7132  -1.7057
    -1.6943  -1.6839  -1.6714  -1.6695  -1.6611  -1.6458  -1.6380  -1.6318
    -1.6257  -1.6220  -1.6206  -1.6196  -1.6171  -1.6143  -1.5995  -1.5932
    -1.5843  -1.5708  -1.5636  -1.5537  -1.5379  -1.5246  -1.5212  -1.5188
    -1.5167  -1.5116  -1.4972  -1.4894  -1.4777  -1.4706  -1.4624  -1.4574
    -1.4455  -1.4389  -1.4178  -1.4124  -1.4060  -1.4000  -1.3874  -1.3642
    -1.3607  -1.3574  -1.3547  -1.3497  -1.3311  -1.3255  -1.3223  -1.3171
    -1.3088  -1.3018  -1.2984  -1.2923  -1.2915  -1.2813  -1.2796  -1.2680
    -1.2624  -1.2590  -1.2536  -1.2469  -1.2406  -1.2379  -1.2181  -1.1979
    -1.1942  -1.1920  -1.1858  -1.1847  -1.1695  -1.1513  -1.1309  -1.1293
    -1.1285  -1.1267  -1.1219  -1.1196  -1.1127  -1.1042  -1.0839  -1.0701
    -1.0621  -1.0608  -1.0565  -1.0405  -1.0384  -1.0284  -1.0024  -0.9911
    -0.9693  -0.9622  -0.9378  -0.9371  -0.9326  -0.9317  -0.9284  -0.9231
    -0.9219  -0.9214  -0.9159  -0.9139  -0.8859  -0.8842  -0.8647  -0.8637
    -0.8598  -0.8593  -0.8545  -0.8419  -0.8370  -0.5734  -0.5511  -0.4925
    -0.4840  -0.4588  -0.2962  -0.2341  -0.2322  -0.1901   0.0868   0.0917
     0.4190   0.4241   0.5141   0.5167   0.5568   0.5584   0.7047   0.7085
     0.8216   0.8276   0.9261   1.5143   1.5280   1.5306   1.5671   1.5754
     1.6249   1.6336   1.6977   1.7037   1.9037   1.9079   2.1493   2.2211
     2.2242   2.2384   2.6232   2.6248   2.6887   2.6919   2.6983   2.7016
     2.8491   2.8513   2.9177   2.9969   3.0019   3.2251   3.2292   3.3582
     3.3812   3.3907   3.6555   3.6647   3.7751   3.7906   3.7925   3.8807
     3.8977   3.9738   3.9805   4.2063   4.2172   4.3090   4.3114   4.4195
     4.4276   4.4565   4.4596   4.6390   5.2627   5.2891   5.3471   5.3614
     5.3651   5.5301   5.5430   5.6122   5.6567   5.6603   5.6971   5.7053
     5.7087   5.7340   5.7556   5.7880   6.0142   6.0286   6.0427   6.0465
     6.0542   6.0577   6.0638   6.0674   6.1440   6.1540   6.1783   6.2842

          k =-0.2500-0.2500 0.0833 (167653 PWs)   bands (ev):

   -19.3422  -7.4619  -6.9117  -6.3856  -6.3830  -5.9550  -5.5507  -5.4544
    -5.4518  -5.2578  -5.2562  -5.1488  -5.1377  -5.0610  -5.0395  -4.9648
    -4.8813  -4.8755  -4.8388  -4.8366  -4.6805  -4.6610  -4.6598  -4.6572
    -4.6508  -4.5972  -4.5959  -4.5851  -4.5827  -4.5467  -4.5423  -4.5329
    -4.4930  -4.4916  -4.4595  -4.4580  -4.4195  -4.4044  -4.3986  -4.3938
    -4.3874  -4.3753  -4.3744  -4.3406  -4.3178  -4.3153  -4.3088  -4.3074
    -4.2810  -4.2328  -4.2228  -4.2119  -4.2095  -4.2084  -4.1997  -4.1953
    -4.1940  -4.1923  -4.1440  -4.1278  -4.0881  -4.0773  -4.0697  -4.0471
    -4.0416  -4.0262  -4.0191  -4.0160  -4.0146  -4.0102  -3.9652  -3.9605
    -3.9520  -3.9467  -3.9010  -3.8441  -3.8410  -3.8344  -3.8151  -3.7984
    -3.7748  -3.7634  -3.7463  -3.7312  -3.7147  -3.7117  -3.6956  -3.6921
    -3.6819  -3.6782  -3.6262  -3.6242  -3.6022  -3.5893  -3.5848  -3.5784
    -3.5774  -3.5674  -3.5521  -3.5476  -3.5153  -3.5103  -3.4936  -3.4816
    -3.4585  -3.4474  -3.4446  -3.4131  -3.4062  -3.3781  -3.3746  -3.3383
    -3.3314  -3.3300  -3.3173  -3.3141  -3.3111  -3.3051  -3.2761  -3.2617
    -3.2261  -3.2228  -3.2145  -3.2077  -3.2042  -3.2022  -3.1815  -3.1798
    -3.1632  -3.1598  -3.1555  -3.1321  -3.1299  -3.1234  -3.1195  -3.1140
    -3.0841  -3.0817  -3.0501  -3.0438  -3.0428  -3.0403  -3.0383  -2.9598
    -2.9575  -2.9513  -2.9483  -2.9447  -2.9441  -2.9417  -2.9385  -2.9375
    -2.9372  -2.9289  -2.9208  -2.9095  -2.9028  -2.8994  -2.8948  -2.8874
    -2.8792  -2.8477  -2.8455  -2.8432  -2.8380  -2.8369  -2.8214  -2.8193
    -2.8126  -2.8097  -2.8077  -2.7543  -2.7494  -2.7460  -2.7433  -2.7406
    -2.7321  -2.7100  -2.6559  -2.6542  -2.6512  -2.6467  -2.6375  -2.6357
    -2.6325  -2.6225  -2.6175  -2.5985  -2.5817  -2.5794  -2.5767  -2.5714
    -2.5688  -2.5373  -2.5346  -2.5271  -2.5237  -2.5211  -2.5191  -2.4771
    -2.4668  -2.4536  -2.4099  -2.4030  -2.3960  -2.3863  -2.3789  -2.3717
    -2.3333  -2.3282  -2.3080  -2.3009  -2.2808  -2.2789  -2.2721  -2.2560
    -2.2514  -2.2449  -2.2276  -2.2086  -2.1892  -2.1756  -2.1701  -2.1684
    -2.1663  -2.1598  -2.1573  -2.1454  -2.1423  -2.1413  -2.1372  -2.1320
    -2.1310  -2.1262  -2.1205  -2.1076  -2.1028  -2.1012  -2.0956  -2.0940
    -2.0897  -2.0742  -2.0674  -2.0589  -2.0570  -2.0492  -2.0456  -2.0127
    -1.9833  -1.9777  -1.9440  -1.9355  -1.9269  -1.9209  -1.9115  -1.9002
    -1.8906  -1.8815  -1.8773  -1.8756  -1.8732  -1.8707  -1.8638  -1.8388
    -1.8372  -1.8359  -1.7994  -1.7930  -1.7592  -1.7497  -1.7132  -1.7057
    -1.6943  -1.6839  -1.6714  -1.6695  -1.6611  -1.6458  -1.6380  -1.6318
    -1.6257  -1.6220  -1.6206  -1.6196  -1.6171  -1.6143  -1.5995  -1.5932
    -1.5843  -1.5708  -1.5636  -1.5537  -1.5379  -1.5246  -1.5212  -1.5188
    -1.5167  -1.5116  -1.4972  -1.4894  -1.4777  -1.4706  -1.4624  -1.4574
    -1.4455  -1.4389  -1.4178  -1.4124  -1.4060  -1.4000  -1.3874  -1.3642
    -1.3608  -1.3574  -1.3547  -1.3497  -1.3311  -1.3255  -1.3223  -1.3171
    -1.3088  -1.3018  -1.2984  -1.2923  -1.2915  -1.2813  -1.2796  -1.2680
    -1.2624  -1.2590  -1.2536  -1.2469  -1.2406  -1.2379  -1.2181  -1.1979
    -1.1942  -1.1920  -1.1858  -1.1847  -1.1695  -1.1514  -1.1309  -1.1293
    -1.1285  -1.1267  -1.1219  -1.1196  -1.1127  -1.1042  -1.0839  -1.0701
    -1.0621  -1.0608  -1.0565  -1.0406  -1.0384  -1.0284  -1.0024  -0.9911
    -0.9693  -0.9622  -0.9378  -0.9371  -0.9326  -0.9317  -0.9284  -0.9231
    -0.9219  -0.9214  -0.9159  -0.9139  -0.8859  -0.8842  -0.8647  -0.8637
    -0.8598  -0.8593  -0.8545  -0.8419  -0.8370  -0.5734  -0.5511  -0.4925
    -0.4840  -0.4588  -0.2962  -0.2341  -0.2322  -0.1901   0.0868   0.0917
     0.4190   0.4241   0.5141   0.5167   0.5568   0.5584   0.7047   0.7084
     0.8216   0.8275   0.9261   1.5143   1.5280   1.5306   1.5671   1.5753
     1.6249   1.6336   1.6977   1.7037   1.9037   1.9079   2.1493   2.2211
     2.2242   2.2384   2.6233   2.6248   2.6887   2.6919   2.6983   2.7016
     2.8491   2.8513   2.9177   2.9969   3.0019   3.2251   3.2292   3.3582
     3.3812   3.3907   3.6554   3.6647   3.7751   3.7906   3.7925   3.8807
     3.8977   3.9738   3.9805   4.2063   4.2172   4.3090   4.3114   4.4195
     4.4276   4.4565   4.4596   4.6389   5.2631   5.2892   5.3542   5.3636
     5.3796   5.5302   5.5430   5.6130   5.6561   5.6605   5.6779   5.7029
     5.7084   5.7276   5.7522   5.7570   6.0142   6.0284   6.0425   6.0462
     6.0542   6.0575   6.0637   6.0677   6.1440   6.1705   6.1809   6.1936

          k =-0.2500 0.2500-0.0833 (167653 PWs)   bands (ev):

   -19.3422  -7.4619  -6.9117  -6.3856  -6.3830  -5.9550  -5.5507  -5.4545
    -5.4517  -5.2578  -5.2561  -5.1489  -5.1376  -5.0610  -5.0394  -4.9648
    -4.8811  -4.8756  -4.8391  -4.8366  -4.6804  -4.6613  -4.6599  -4.6571
    -4.6508  -4.5972  -4.5958  -4.5852  -4.5825  -4.5468  -4.5421  -4.5327
    -4.4930  -4.4916  -4.4597  -4.4578  -4.4200  -4.4042  -4.3984  -4.3939
    -4.3874  -4.3752  -4.3744  -4.3402  -4.3176  -4.3154  -4.3091  -4.3072
    -4.2807  -4.2321  -4.2245  -4.2120  -4.2094  -4.2079  -4.1999  -4.1954
    -4.1940  -4.1922  -4.1450  -4.1276  -4.0874  -4.0772  -4.0694  -4.0474
    -4.0412  -4.0271  -4.0181  -4.0160  -4.0150  -4.0102  -3.9646  -3.9606
    -3.9520  -3.9465  -3.9026  -3.8443  -3.8408  -3.8343  -3.8147  -3.7984
    -3.7746  -3.7619  -3.7467  -3.7312  -3.7145  -3.7125  -3.6956  -3.6904
    -3.6816  -3.6776  -3.6262  -3.6239  -3.6052  -3.5893  -3.5846  -3.5785
    -3.5775  -3.5681  -3.5520  -3.5468  -3.5155  -3.5105  -3.4941  -3.4805
    -3.4589  -3.4471  -3.4440  -3.4132  -3.4082  -3.3785  -3.3744  -3.3378
    -3.3314  -3.3300  -3.3173  -3.3139  -3.3111  -3.3039  -3.2761  -3.2615
    -3.2261  -3.2230  -3.2144  -3.2078  -3.2042  -3.2022  -3.1815  -3.1797
    -3.1633  -3.1598  -3.1553  -3.1321  -3.1301  -3.1234  -3.1197  -3.1140
    -3.0843  -3.0819  -3.0501  -3.0438  -3.0424  -3.0403  -3.0381  -2.9600
    -2.9574  -2.9515  -2.9484  -2.9445  -2.9442  -2.9418  -2.9387  -2.9378
    -2.9373  -2.9289  -2.9208  -2.9092  -2.9030  -2.8994  -2.8951  -2.8875
    -2.8804  -2.8475  -2.8455  -2.8432  -2.8375  -2.8367  -2.8215  -2.8192
    -2.8126  -2.8100  -2.8077  -2.7541  -2.7492  -2.7464  -2.7436  -2.7406
    -2.7330  -2.7093  -2.6560  -2.6540  -2.6514  -2.6468  -2.6379  -2.6356
    -2.6329  -2.6221  -2.6178  -2.5972  -2.5815  -2.5801  -2.5771  -2.5711
    -2.5683  -2.5371  -2.5347  -2.5269  -2.5237  -2.5209  -2.5189  -2.4767
    -2.4671  -2.4524  -2.4096  -2.4032  -2.3959  -2.3864  -2.3789  -2.3715
    -2.3326  -2.3280  -2.3080  -2.3001  -2.2814  -2.2787  -2.2722  -2.2559
    -2.2517  -2.2449  -2.2282  -2.2087  -2.1894  -2.1747  -2.1700  -2.1685
    -2.1666  -2.1597  -2.1577  -2.1458  -2.1425  -2.1411  -2.1371  -2.1319
    -2.1311  -2.1264  -2.1200  -2.1072  -2.1029  -2.1010  -2.0959  -2.0941
    -2.0898  -2.0743  -2.0669  -2.0584  -2.0572  -2.0488  -2.0450  -2.0124
    -1.9832  -1.9774  -1.9439  -1.9385  -1.9272  -1.9220  -1.9112  -1.9001
    -1.8904  -1.8818  -1.8777  -1.8760  -1.8734  -1.8712  -1.8649  -1.8388
    -1.8375  -1.8362  -1.7976  -1.7930  -1.7596  -1.7504  -1.7111  -1.7057
    -1.6940  -1.6818  -1.6714  -1.6693  -1.6609  -1.6466  -1.6372  -1.6318
    -1.6256  -1.6219  -1.6207  -1.6197  -1.6171  -1.6147  -1.5995  -1.5936
    -1.5860  -1.5709  -1.5642  -1.5539  -1.5365  -1.5248  -1.5211  -1.5188
    -1.5166  -1.5116  -1.4980  -1.4911  -1.4777  -1.4712  -1.4629  -1.4571
    -1.4455  -1.4398  -1.4156  -1.4124  -1.4060  -1.3973  -1.3881  -1.3671
    -1.3607  -1.3582  -1.3547  -1.3497  -1.3304  -1.3262  -1.3225  -1.3171
    -1.3096  -1.3016  -1.2986  -1.2922  -1.2915  -1.2812  -1.2785  -1.2682
    -1.2622  -1.2590  -1.2540  -1.2466  -1.2422  -1.2379  -1.2146  -1.1985
    -1.1933  -1.1922  -1.1864  -1.1848  -1.1692  -1.1512  -1.1314  -1.1293
    -1.1288  -1.1268  -1.1217  -1.1201  -1.1097  -1.1043  -1.0859  -1.0698
    -1.0616  -1.0601  -1.0545  -1.0406  -1.0383  -1.0284  -1.0021  -0.9911
    -0.9693  -0.9621  -0.9381  -0.9372  -0.9328  -0.9317  -0.9284  -0.9231
    -0.9219  -0.9207  -0.9160  -0.9152  -0.8861  -0.8839  -0.8645  -0.8639
    -0.8599  -0.8592  -0.8548  -0.8416  -0.8370  -0.5735  -0.5511  -0.4920
    -0.4846  -0.4589  -0.2970  -0.2347  -0.2320  -0.1897   0.0866   0.0919
     0.4191   0.4242   0.5137   0.5170   0.5565   0.5582   0.7040   0.7085
     0.8217   0.8277   0.9261   1.5140   1.5279   1.5310   1.5681   1.5754
     1.6265   1.6320   1.6968   1.7045   1.9028   1.9086   2.1497   2.2203
     2.2252   2.2383   2.6231   2.6252   2.6884   2.6925   2.6980   2.7018
     2.8488   2.8516   2.9181   2.9968   3.0009   3.2241   3.2295   3.3579
     3.3806   3.3915   3.6552   3.6646   3.7753   3.7907   3.7925   3.8829
     3.8957   3.9728   3.9805   4.2056   4.2176   4.3098   4.3107   4.4185
     4.4288   4.4556   4.4619   4.6392   5.2653   5.2874   5.3560   5.3622
     5.3794   5.5297   5.5426   5.6133   5.6568   5.6604   5.6783   5.7020
     5.7079   5.7292   5.7508   5.7558   6.0142   6.0287   6.0426   6.0470
     6.0545   6.0604   6.0634   6.0651   6.1452   6.1689   6.1817   6.1919

          k = 0.2500-0.2500-0.0833 (167653 PWs)   bands (ev):

   -19.3422  -7.4619  -6.9117  -6.3856  -6.3830  -5.9550  -5.5507  -5.4545
    -5.4517  -5.2578  -5.2561  -5.1489  -5.1376  -5.0610  -5.0394  -4.9648
    -4.8811  -4.8756  -4.8391  -4.8366  -4.6804  -4.6613  -4.6599  -4.6571
    -4.6508  -4.5972  -4.5958  -4.5852  -4.5825  -4.5468  -4.5421  -4.5327
    -4.4930  -4.4916  -4.4597  -4.4578  -4.4200  -4.4042  -4.3984  -4.3939
    -4.3874  -4.3752  -4.3744  -4.3402  -4.3176  -4.3154  -4.3091  -4.3072
    -4.2807  -4.2321  -4.2245  -4.2120  -4.2094  -4.2079  -4.1999  -4.1954
    -4.1940  -4.1922  -4.1450  -4.1276  -4.0874  -4.0772  -4.0694  -4.0474
    -4.0412  -4.0271  -4.0181  -4.0160  -4.0150  -4.0102  -3.9646  -3.9606
    -3.9520  -3.9465  -3.9026  -3.8443  -3.8408  -3.8343  -3.8147  -3.7984
    -3.7746  -3.7619  -3.7467  -3.7312  -3.7145  -3.7125  -3.6956  -3.6904
    -3.6816  -3.6776  -3.6262  -3.6239  -3.6052  -3.5893  -3.5846  -3.5785
    -3.5775  -3.5681  -3.5520  -3.5468  -3.5155  -3.5105  -3.4941  -3.4805
    -3.4589  -3.4471  -3.4440  -3.4132  -3.4082  -3.3785  -3.3744  -3.3378
    -3.3314  -3.3300  -3.3173  -3.3139  -3.3111  -3.3039  -3.2761  -3.2615
    -3.2261  -3.2230  -3.2144  -3.2078  -3.2042  -3.2022  -3.1815  -3.1797
    -3.1633  -3.1598  -3.1553  -3.1321  -3.1301  -3.1234  -3.1197  -3.1140
    -3.0843  -3.0819  -3.0501  -3.0438  -3.0424  -3.0403  -3.0381  -2.9600
    -2.9574  -2.9515  -2.9484  -2.9445  -2.9442  -2.9418  -2.9387  -2.9378
    -2.9373  -2.9289  -2.9208  -2.9092  -2.9030  -2.8994  -2.8951  -2.8875
    -2.8804  -2.8475  -2.8455  -2.8432  -2.8375  -2.8367  -2.8215  -2.8192
    -2.8126  -2.8100  -2.8077  -2.7541  -2.7492  -2.7464  -2.7436  -2.7406
    -2.7330  -2.7093  -2.6560  -2.6540  -2.6514  -2.6468  -2.6379  -2.6356
    -2.6329  -2.6221  -2.6178  -2.5972  -2.5815  -2.5801  -2.5771  -2.5711
    -2.5683  -2.5371  -2.5347  -2.5269  -2.5237  -2.5209  -2.5189  -2.4767
    -2.4671  -2.4524  -2.4096  -2.4032  -2.3959  -2.3864  -2.3789  -2.3715
    -2.3326  -2.3280  -2.3080  -2.3001  -2.2814  -2.2787  -2.2722  -2.2559
    -2.2517  -2.2449  -2.2282  -2.2087  -2.1894  -2.1747  -2.1700  -2.1685
    -2.1666  -2.1597  -2.1577  -2.1458  -2.1425  -2.1411  -2.1371  -2.1319
    -2.1311  -2.1264  -2.1200  -2.1072  -2.1029  -2.1010  -2.0959  -2.0941
    -2.0898  -2.0743  -2.0669  -2.0584  -2.0572  -2.0488  -2.0450  -2.0124
    -1.9832  -1.9774  -1.9439  -1.9385  -1.9272  -1.9220  -1.9112  -1.9001
    -1.8904  -1.8818  -1.8777  -1.8760  -1.8734  -1.8712  -1.8649  -1.8388
    -1.8375  -1.8362  -1.7976  -1.7930  -1.7596  -1.7504  -1.7111  -1.7057
    -1.6940  -1.6818  -1.6714  -1.6693  -1.6609  -1.6466  -1.6372  -1.6318
    -1.6256  -1.6219  -1.6207  -1.6197  -1.6171  -1.6147  -1.5995  -1.5936
    -1.5860  -1.5709  -1.5642  -1.5539  -1.5365  -1.5248  -1.5211  -1.5188
    -1.5166  -1.5116  -1.4980  -1.4911  -1.4777  -1.4712  -1.4629  -1.4571
    -1.4455  -1.4398  -1.4156  -1.4124  -1.4060  -1.3973  -1.3881  -1.3671
    -1.3607  -1.3582  -1.3547  -1.3497  -1.3304  -1.3262  -1.3225  -1.3171
    -1.3096  -1.3016  -1.2986  -1.2922  -1.2915  -1.2812  -1.2785  -1.2682
    -1.2622  -1.2590  -1.2540  -1.2466  -1.2422  -1.2379  -1.2146  -1.1985
    -1.1933  -1.1922  -1.1864  -1.1848  -1.1692  -1.1512  -1.1314  -1.1293
    -1.1288  -1.1268  -1.1217  -1.1201  -1.1097  -1.1043  -1.0859  -1.0698
    -1.0616  -1.0601  -1.0545  -1.0406  -1.0383  -1.0284  -1.0021  -0.9911
    -0.9693  -0.9621  -0.9381  -0.9372  -0.9328  -0.9317  -0.9284  -0.9231
    -0.9219  -0.9207  -0.9160  -0.9152  -0.8861  -0.8839  -0.8645  -0.8639
    -0.8599  -0.8592  -0.8548  -0.8416  -0.8370  -0.5735  -0.5511  -0.4920
    -0.4846  -0.4589  -0.2970  -0.2347  -0.2320  -0.1897   0.0866   0.0919
     0.4191   0.4242   0.5137   0.5170   0.5565   0.5582   0.7040   0.7085
     0.8217   0.8277   0.9261   1.5140   1.5279   1.5310   1.5681   1.5754
     1.6265   1.6320   1.6968   1.7045   1.9028   1.9086   2.1497   2.2203
     2.2252   2.2383   2.6231   2.6252   2.6884   2.6925   2.6980   2.7018
     2.8488   2.8516   2.9181   2.9968   3.0009   3.2241   3.2295   3.3579
     3.3806   3.3915   3.6552   3.6646   3.7753   3.7907   3.7925   3.8829
     3.8957   3.9728   3.9805   4.2056   4.2176   4.3098   4.3107   4.4185
     4.4288   4.4556   4.4619   4.6392   5.2653   5.2873   5.3560   5.3622
     5.3794   5.5297   5.5427   5.6133   5.6566   5.6603   5.6784   5.7020
     5.7079   5.7295   5.7507   5.7558   6.0144   6.0288   6.0426   6.0469
     6.0545   6.0605   6.0635   6.0652   6.1458   6.1695   6.1813   6.1909

          k =-0.2500 0.2500 0.2500 (167588 PWs)   bands (ev):

   -19.3422  -7.4619  -6.9117  -6.3856  -6.3830  -5.9550  -5.5507  -5.4545
    -5.4517  -5.2578  -5.2561  -5.1489  -5.1376  -5.0610  -5.0394  -4.9648
    -4.8811  -4.8756  -4.8391  -4.8366  -4.6804  -4.6613  -4.6599  -4.6571
    -4.6508  -4.5973  -4.5958  -4.5852  -4.5825  -4.5468  -4.5421  -4.5327
    -4.4930  -4.4916  -4.4597  -4.4578  -4.4200  -4.4042  -4.3984  -4.3939
    -4.3874  -4.3752  -4.3744  -4.3402  -4.3176  -4.3154  -4.3091  -4.3072
    -4.2807  -4.2321  -4.2245  -4.2120  -4.2094  -4.2079  -4.1999  -4.1954
    -4.1940  -4.1922  -4.1450  -4.1276  -4.0874  -4.0772  -4.0694  -4.0474
    -4.0412  -4.0271  -4.0181  -4.0160  -4.0150  -4.0102  -3.9646  -3.9606
    -3.9520  -3.9465  -3.9026  -3.8443  -3.8408  -3.8343  -3.8147  -3.7984
    -3.7746  -3.7619  -3.7467  -3.7312  -3.7145  -3.7125  -3.6956  -3.6904
    -3.6816  -3.6776  -3.6262  -3.6239  -3.6052  -3.5893  -3.5846  -3.5785
    -3.5775  -3.5681  -3.5520  -3.5468  -3.5155  -3.5104  -3.4941  -3.4805
    -3.4589  -3.4471  -3.4440  -3.4132  -3.4082  -3.3785  -3.3744  -3.3378
    -3.3314  -3.3300  -3.3173  -3.3139  -3.3111  -3.3039  -3.2761  -3.2615
    -3.2261  -3.2230  -3.2144  -3.2078  -3.2042  -3.2022  -3.1815  -3.1797
    -3.1633  -3.1598  -3.1553  -3.1321  -3.1300  -3.1234  -3.1197  -3.1140
    -3.0843  -3.0819  -3.0501  -3.0438  -3.0424  -3.0403  -3.0381  -2.9600
    -2.9574  -2.9515  -2.9484  -2.9445  -2.9442  -2.9418  -2.9387  -2.9378
    -2.9373  -2.9289  -2.9208  -2.9092  -2.9030  -2.8994  -2.8951  -2.8874
    -2.8804  -2.8475  -2.8455  -2.8432  -2.8375  -2.8367  -2.8215  -2.8192
    -2.8126  -2.8100  -2.8077  -2.7541  -2.7492  -2.7464  -2.7436  -2.7406
    -2.7330  -2.7093  -2.6560  -2.6540  -2.6514  -2.6469  -2.6379  -2.6356
    -2.6329  -2.6221  -2.6178  -2.5972  -2.5815  -2.5801  -2.5771  -2.5711
    -2.5683  -2.5372  -2.5347  -2.5269  -2.5237  -2.5209  -2.5189  -2.4767
    -2.4671  -2.4524  -2.4096  -2.4032  -2.3959  -2.3865  -2.3789  -2.3715
    -2.3326  -2.3280  -2.3080  -2.3001  -2.2814  -2.2787  -2.2722  -2.2559
    -2.2517  -2.2449  -2.2282  -2.2087  -2.1894  -2.1747  -2.1700  -2.1685
    -2.1666  -2.1597  -2.1577  -2.1458  -2.1425  -2.1411  -2.1371  -2.1319
    -2.1311  -2.1264  -2.1200  -2.1072  -2.1029  -2.1010  -2.0959  -2.0941
    -2.0898  -2.0743  -2.0669  -2.0584  -2.0572  -2.0488  -2.0450  -2.0124
    -1.9832  -1.9774  -1.9439  -1.9385  -1.9272  -1.9220  -1.9112  -1.9001
    -1.8904  -1.8818  -1.8777  -1.8760  -1.8734  -1.8712  -1.8649  -1.8388
    -1.8375  -1.8362  -1.7976  -1.7930  -1.7596  -1.7504  -1.7111  -1.7057
    -1.6940  -1.6818  -1.6714  -1.6694  -1.6609  -1.6466  -1.6372  -1.6318
    -1.6256  -1.6219  -1.6207  -1.6197  -1.6171  -1.6146  -1.5995  -1.5936
    -1.5861  -1.5709  -1.5642  -1.5539  -1.5365  -1.5248  -1.5211  -1.5188
    -1.5166  -1.5116  -1.4980  -1.4911  -1.4777  -1.4712  -1.4629  -1.4571
    -1.4455  -1.4398  -1.4156  -1.4124  -1.4060  -1.3973  -1.3881  -1.3671
    -1.3607  -1.3581  -1.3547  -1.3497  -1.3304  -1.3262  -1.3225  -1.3171
    -1.3096  -1.3016  -1.2986  -1.2922  -1.2915  -1.2812  -1.2785  -1.2683
    -1.2622  -1.2590  -1.2540  -1.2465  -1.2422  -1.2379  -1.2146  -1.1985
    -1.1933  -1.1922  -1.1864  -1.1848  -1.1692  -1.1512  -1.1314  -1.1293
    -1.1287  -1.1268  -1.1217  -1.1201  -1.1097  -1.1043  -1.0859  -1.0698
    -1.0616  -1.0601  -1.0545  -1.0406  -1.0383  -1.0284  -1.0021  -0.9911
    -0.9693  -0.9621  -0.9381  -0.9372  -0.9328  -0.9317  -0.9284  -0.9231
    -0.9219  -0.9207  -0.9160  -0.9152  -0.8861  -0.8839  -0.8645  -0.8639
    -0.8599  -0.8592  -0.8548  -0.8416  -0.8370  -0.5735  -0.5511  -0.4920
    -0.4846  -0.4589  -0.2970  -0.2347  -0.2320  -0.1897   0.0866   0.0919
     0.4191   0.4242   0.5137   0.5170   0.5565   0.5582   0.7040   0.7085
     0.8217   0.8277   0.9261   1.5140   1.5279   1.5310   1.5681   1.5754
     1.6265   1.6320   1.6969   1.7045   1.9028   1.9086   2.1497   2.2202
     2.2252   2.2383   2.6231   2.6252   2.6884   2.6925   2.6980   2.7018
     2.8488   2.8516   2.9181   2.9968   3.0009   3.2241   3.2295   3.3579
     3.3806   3.3915   3.6552   3.6646   3.7753   3.7907   3.7925   3.8830
     3.8958   3.9728   3.9805   4.2056   4.2176   4.3098   4.3107   4.4185
     4.4288   4.4556   4.4619   4.6393   5.2649   5.2873   5.3481   5.3614
     5.3642   5.5296   5.5426   5.6125   5.6574   5.6602   5.6983   5.7040
     5.7093   5.7321   5.7548   5.7883   6.0143   6.0289   6.0427   6.0472
     6.0546   6.0607   6.0636   6.0649   6.1448   6.1550   6.1750   6.2859

     the Fermi energy is     0.7776 ev

!    total energy              =   -7425.26441779 Ry
     Harris-Foulkes estimate   =   -7425.26441780 Ry
     estimated scf accuracy    <          9.4E-09 Ry

     The total energy is the sum of the following terms:

     one-electron contribution =  -48898.45379232 Ry
     hartree contribution      =   24997.42946157 Ry
     xc contribution           =   -3604.29723472 Ry
     ewald contribution        =   20080.05953316 Ry
     smearing contrib. (-TS)   =      -0.00238548 Ry

     convergence has been achieved in  28 iterations

     Writing output data file 3480233.save

     init_run     :    116.08s CPU    124.19s WALL (       1 calls)
     electrons    :   8378.09s CPU   8879.34s WALL (       1 calls)

     Called by init_run:
     wfcinit      :     78.50s CPU     85.86s WALL (       1 calls)
     potinit      :      7.80s CPU      8.22s WALL (       1 calls)

     Called by electrons:
     c_bands      :   6589.54s CPU   6991.95s WALL (      29 calls)
     sum_band     :   1103.55s CPU   1183.38s WALL (      29 calls)
     v_of_rho     :    149.02s CPU    160.75s WALL (      29 calls)
     newd         :    552.72s CPU    559.47s WALL (      29 calls)
     mix_rho      :      4.39s CPU      4.85s WALL (      29 calls)
     vdW_energy   :     11.87s CPU     13.09s WALL (      29 calls)
     vdW_ffts     :     80.20s CPU     86.01s WALL (      58 calls)
     vdW_v        :     18.13s CPU     19.12s WALL (      29 calls)

     Called by c_bands:
     init_us_2    :     20.84s CPU     21.09s WALL (     354 calls)
     cegterg      :   6503.11s CPU   6904.51s WALL (     174 calls)

     Called by *egterg:
     h_psi        :   3354.42s CPU   3717.98s WALL (     845 calls)
     s_psi        :    268.68s CPU    270.42s WALL (     845 calls)
     g_psi        :      5.24s CPU      5.24s WALL (     665 calls)
     cdiaghg      :   1144.14s CPU   1147.25s WALL (     833 calls)

     Called by h_psi:
     add_vuspsi   :    272.30s CPU    274.20s WALL (     845 calls)

     General routines
     calbec       :    432.46s CPU    435.16s WALL (    1019 calls)
     fft          :    237.94s CPU    248.22s WALL (    1914 calls)
     ffts         :      2.29s CPU      2.63s WALL (      58 calls)
     fftw         :   2745.87s CPU   3102.76s WALL (  468182 calls)
     interpolate  :      6.10s CPU      6.84s WALL (      58 calls)
     davcio       :      0.00s CPU      0.26s WALL (       6 calls)

     Parallel routines
     fft_scatter  :   2341.75s CPU   2628.96s WALL (  470154 calls)

     PWSCF        :     2h21m CPU        2h30m WALL


   This run was terminated on:  13: 5:45  24Aug2015            

=------------------------------------------------------------------------------=
   JOB DONE.
=------------------------------------------------------------------------------=
