Setting SGE environment for SCC

     Program PWSCF v.5.1.2 starts on  5Jul2015 at 14:38:30 

     This program is part of the open-source Quantum ESPRESSO suite
     for quantum simulation of materials; please cite
         "P. Giannozzi et al., J. Phys.:Condens. Matter 21 395502 (2009);
          URL http://www.quantum-espresso.org", 
     in publications or presentations arising from this work. More details at
     http://www.quantum-espresso.org/quote

     Parallel version (MPI), running on    32 processors
     R & G space division:  proc/nbgrp/npool/nimage =      32
     Reading input from hollow.H2.Au5859.d.2.0.phi.0.psi.0.in
Warning: card &IONS ignored
Warning: card / ignored
Warning: card &CELL ignored
Warning: card / ignored

     Current dimensions of program PWSCF are:
     Max number of different atomic species (ntypx) = 10
     Max number of k-points (npk) =  40000
     Max angular momentum in pseudopotentials (lmaxx) =  3

     IMPORTANT: XC functional enforced from input :
     Exchange-correlation      = VDW-DF ( 1  4  4  0 1 0)
     Any further DFT definition will be discarded
     Please, verify this is what you really want


     Subspace diagonalization in iterative solution of the eigenvalue problem:
     a serial algorithm will be used


     Parallelization info
     --------------------
     sticks:   dense  smooth     PW     G-vecs:    dense   smooth      PW
     Min         578     289     74               118518    41891    5486
     Max         579     290     75               118533    41932    5497
     Sum       18505    9265   2385              3792731  1341081  175711


     Title: 
     hollow.H2.Au5859.d.2.0.phi.0.psi.0                                         


     bravais-lattice index     =            8
     lattice parameter (alat)  =      24.1233  a.u.
     unit-cell volume          =   28076.2361 (a.u.)^3
     number of atoms/cell      =           75
     number of atomic types    =            3
     number of electrons       =       800.00
     number of Kohn-Sham states=          480
     kinetic-energy cutoff     =      50.0000  Ry
     charge density cutoff     =     400.0000  Ry
     convergence threshold     =      1.0E-08
     mixing beta               =       0.7000
     number of iterations used =            8  plain     mixing
     Exchange-correlation      = VDW-DF ( 1  4  4  0 1 0)

     celldm(1)=  24.123277  celldm(2)=   1.000000  celldm(3)=   2.000000
     celldm(4)=   0.000000  celldm(5)=   0.000000  celldm(6)=   0.000000

     crystal axes: (cart. coord. in units of alat)
               a(1) = (   1.000000   0.000000   0.000000 )  
               a(2) = (   0.000000   1.000000   0.000000 )  
               a(3) = (   0.000000   0.000000   2.000000 )  

     reciprocal axes: (cart. coord. in units 2 pi/alat)
               b(1) = (  1.000000  0.000000  0.000000 )  
               b(2) = (  0.000000  1.000000  0.000000 )  
               b(3) = (  0.000000  0.000000  0.500000 )  


     PseudoPot. # 1 for Au read from file:
     /home/scc/andrejb/qe/pseudo/Au.pbe-nd-van.UPF
     MD5 check sum: 458681b50f36d87ef23c61b04bba420a
     Pseudo is Ultrasoft + core correction, Zval = 11.0
     Generated by new atomic code, or converted to UPF format
     Using radial grid of  985 points,  3 beta functions with: 
                l(1) =   1
                l(2) =   2
                l(3) =   2
     Q(r) pseudized with  8 coefficients,  rinner =    1.100   1.100   1.100
                                                       1.100   1.100

     PseudoPot. # 2 for H  read from file:
     /home/scc/andrejb/qe/pseudo/H.pbe-van_ak.UPF
     MD5 check sum: 403db7282739603aa925980fa9b8608d
     Pseudo is Ultrasoft, Zval =  1.0
     Generated by new atomic code, or converted to UPF format
     Using radial grid of  615 points,  1 beta functions with: 
                l(1) =   0
     Q(r) pseudized with  8 coefficients,  rinner =    0.800

     PseudoPot. # 3 for O  read from file:
     /home/scc/andrejb/qe/pseudo/O.pbe-van_ak.UPF
     MD5 check sum: 4b8c549914a63cae506c6ff22b5af4fe
     Pseudo is Ultrasoft, Zval =  6.0
     Generated by new atomic code, or converted to UPF format
     Using radial grid of  737 points,  4 beta functions with: 
                l(1) =   0
                l(2) =   0
                l(3) =   1
                l(4) =   1
     Q(r) pseudized with  8 coefficients,  rinner =    0.800   0.800   0.800


     vdW kernel table read from file vdW_kernel_table
     MD5 check sum: 48e77a2e26edf626eeb0eaa751ad5cac

     atomic species   valence    mass     pseudopotential
        Au            11.00   196.96657     Au( 1.00)
        H              1.00     1.01000     H ( 1.00)
        O              6.00    16.00000     O ( 1.00)

     No symmetry found



   Cartesian axes

     site n.     atom                  positions (alat units)
         1           O   tau(   1) = (   0.1840006   0.1810976   0.7288420  )
         2           H   tau(   2) = (   0.1666051   0.1666105   0.6559864  )
         3           H   tau(   3) = (   0.1341739   0.1396194   0.7690326  )
         4           Au  tau(   4) = (   0.0000000   0.0000000   0.0000000  )
         5           Au  tau(   5) = (   0.3332217   0.0000000   0.0000000  )
         6           Au  tau(   6) = (   0.6664434   0.0000000   0.0000000  )
         7           Au  tau(   7) = (   0.1666109   0.1666109   0.0000000  )
         8           Au  tau(   8) = (   0.4998326   0.1666109   0.0000000  )
         9           Au  tau(   9) = (   0.8330542   0.1666109   0.0000000  )
        10           Au  tau(  10) = (   0.0000000   0.3332217   0.0000000  )
        11           Au  tau(  11) = (   0.3332217   0.3332217   0.0000000  )
        12           Au  tau(  12) = (   0.6664434   0.3332217   0.0000000  )
        13           Au  tau(  13) = (   0.1666109   0.4998326   0.0000000  )
        14           Au  tau(  14) = (   0.4998326   0.4998326   0.0000000  )
        15           Au  tau(  15) = (   0.8330542   0.4998326   0.0000000  )
        16           Au  tau(  16) = (   0.0000000   0.6664434   0.0000000  )
        17           Au  tau(  17) = (   0.3332217   0.6664434   0.0000000  )
        18           Au  tau(  18) = (   0.6664434   0.6664434   0.0000000  )
        19           Au  tau(  19) = (   0.1666109   0.8330542   0.0000000  )
        20           Au  tau(  20) = (   0.4998326   0.8330542   0.0000000  )
        21           Au  tau(  21) = (   0.8330542   0.8330542   0.0000000  )
        22           Au  tau(  22) = (   0.1666109   0.0000000   0.1666109  )
        23           Au  tau(  23) = (   0.4998326   0.0000000   0.1666109  )
        24           Au  tau(  24) = (   0.8330542   0.0000000   0.1666109  )
        25           Au  tau(  25) = (   0.0000000   0.1666109   0.1666109  )
        26           Au  tau(  26) = (   0.3332217   0.1666109   0.1666109  )
        27           Au  tau(  27) = (   0.6664434   0.1666109   0.1666109  )
        28           Au  tau(  28) = (   0.1666109   0.3332217   0.1666109  )
        29           Au  tau(  29) = (   0.4998326   0.3332217   0.1666109  )
        30           Au  tau(  30) = (   0.8330542   0.3332217   0.1666109  )
        31           Au  tau(  31) = (   0.0000000   0.4998326   0.1666109  )
        32           Au  tau(  32) = (   0.3332217   0.4998326   0.1666109  )
        33           Au  tau(  33) = (   0.6664434   0.4998326   0.1666109  )
        34           Au  tau(  34) = (   0.1666109   0.6664434   0.1666109  )
        35           Au  tau(  35) = (   0.4998326   0.6664434   0.1666109  )
        36           Au  tau(  36) = (   0.8330542   0.6664434   0.1666109  )
        37           Au  tau(  37) = (   0.0000000   0.8330542   0.1666109  )
        38           Au  tau(  38) = (   0.3332217   0.8330542   0.1666109  )
        39           Au  tau(  39) = (   0.6664434   0.8330542   0.1666109  )
        40           Au  tau(  40) = (  -0.0000182  -0.0000182   0.3335478  )
        41           Au  tau(  41) = (   0.3332215  -0.0000181   0.3335473  )
        42           Au  tau(  42) = (   0.6664447  -0.0000183   0.3335481  )
        43           Au  tau(  43) = (  -0.0000181   0.3332215   0.3335473  )
        44           Au  tau(  44) = (   0.3332215   0.3332215   0.3335468  )
        45           Au  tau(  45) = (   0.6664445   0.3332215   0.3335477  )
        46           Au  tau(  46) = (  -0.0000183   0.6664447   0.3335481  )
        47           Au  tau(  47) = (   0.3332215   0.6664445   0.3335477  )
        48           Au  tau(  48) = (   0.6664446   0.6664446   0.3335486  )
        49           Au  tau(  49) = (   0.1666097   0.1666097   0.3335483  )
        50           Au  tau(  50) = (   0.4998320   0.1666098   0.3335477  )
        51           Au  tau(  51) = (   0.8330732   0.1666096   0.3335480  )
        52           Au  tau(  52) = (   0.1666098   0.4998320   0.3335477  )
        53           Au  tau(  53) = (   0.4998322   0.4998322   0.3335470  )
        54           Au  tau(  54) = (   0.8330731   0.4998322   0.3335474  )
        55           Au  tau(  55) = (   0.1666096   0.8330732   0.3335480  )
        56           Au  tau(  56) = (   0.4998322   0.8330731   0.3335474  )
        57           Au  tau(  57) = (   0.8330731   0.8330731   0.3335478  )
        58           Au  tau(  58) = (   0.1666104  -0.0000111   0.4993095  )
        59           Au  tau(  59) = (   0.4998323  -0.0000112   0.4993099  )
        60           Au  tau(  60) = (   0.8330660  -0.0000111   0.4993009  )
        61           Au  tau(  61) = (  -0.0000111   0.1666104   0.4993095  )
        62           Au  tau(  62) = (   0.3332213   0.1666106   0.4993185  )
        63           Au  tau(  63) = (   0.6664437   0.1666106   0.4993187  )
        64           Au  tau(  64) = (   0.1666106   0.3332213   0.4993185  )
        65           Au  tau(  65) = (   0.4998324   0.3332216   0.4993185  )
        66           Au  tau(  66) = (   0.8330658   0.3332215   0.4993102  )
        67           Au  tau(  67) = (  -0.0000112   0.4998323   0.4993099  )
        68           Au  tau(  68) = (   0.3332216   0.4998324   0.4993185  )
        69           Au  tau(  69) = (   0.6664437   0.4998325   0.4993187  )
        70           Au  tau(  70) = (   0.1666106   0.6664437   0.4993187  )
        71           Au  tau(  71) = (   0.4998325   0.6664437   0.4993187  )
        72           Au  tau(  72) = (   0.8330658   0.6664438   0.4993102  )
        73           Au  tau(  73) = (  -0.0000111   0.8330660   0.4993009  )
        74           Au  tau(  74) = (   0.3332215   0.8330658   0.4993102  )
        75           Au  tau(  75) = (   0.6664438   0.8330658   0.4993102  )

     number of k points=     6  Marzari-Vanderbilt smearing, width (Ry)=  0.0200
                       cart. coord. in units 2pi/alat
        k(    1) = (   0.2500000   0.2500000   0.0833333), wk =   0.3333333
        k(    2) = (   0.2500000   0.2500000  -0.2500000), wk =   0.3333333
        k(    3) = (  -0.2500000  -0.2500000   0.0833333), wk =   0.3333333
        k(    4) = (  -0.2500000   0.2500000  -0.0833333), wk =   0.3333333
        k(    5) = (   0.2500000  -0.2500000  -0.0833333), wk =   0.3333333
        k(    6) = (  -0.2500000   0.2500000   0.2500000), wk =   0.3333333

     Dense  grid:  3792731 G-vectors     FFT dimensions: ( 160, 160, 320)

     Smooth grid:  1341081 G-vectors     FFT dimensions: ( 120, 120, 225)

     Largest allocated arrays     est. size (Mb)     dimensions
        Kohn-Sham Wavefunctions        38.58 Mb     (    5267,  480)
        NL pseudopotentials            76.03 Mb     (    5267,  946)
        Each V/rho on FFT grid          3.91 Mb     (  256000)
        Each G-vector array             0.90 Mb     (  118520)
        G-vector shells                 0.08 Mb     (   10286)
     Largest temporary arrays     est. size (Mb)     dimensions
        Auxiliary wavefunctions       154.31 Mb     (    5267, 1920)
        Each subspace H/S matrix       56.25 Mb     (    1920, 1920)
        Each <psi_i|beta_j> matrix      6.93 Mb     (     946,  480)
        Arrays for rho mixing          31.25 Mb     (  256000,    8)

     Initial potential from superposition of free atoms
     Check: negative starting charge=   -1.945182

     starting charge  799.16392, renormalised to  800.00000

     negative rho (up, down):  1.947E+00 0.000E+00


     ************************************************************************
     *
     * You are using vdW-DF for exchange-correlation in this calculation.
     * Please cite the following three references that made this development
     * possible:
     *
     *   M. Dion, H. Rydberg, E. Schroder, D. C. Langreth, and
     *   B. I. Lundqvist, Phys. Rev. Lett. 92, 246401 (2004).
     *
     *   T. Thonhauser, V. R. Cooper, S. Li, A. Puzder, P. Hyldgaard, and
     *   D. C. Langreth, Phys. Rev. B 76, 125112 (2007).
     *
     *   G. Roman-Perez and J. M. Soler, Phys. Rev. Lett. 103, 096102 (2009).
     *
     *
     * If you are using vdW-DF2, please also cite:
     *
     *   K. Lee, E. D. Murray, L. Kong, B. I. Lundqvist, and
     *   D. C. Langreth, Phys. Rev. B 82, 081101(R) (2010).
     *
     *
     * If you are calculating the stress with vdW-DF, please also cite:
     *
     *   R. Sabatini, E. Kucukbenli, B. Kolb, T. Thonhauser, and
     *   S. de Gironcoli, J. Phys.: Condens. Matter 24, 424209 (2012).
     *
     ************************************************************************

     Carrying out vdW-DF run using the following parameters:

     Nqs =      20    Nr_points =    1024   r_max =   100.000
     q_mesh =
               0.00001000     0.04494208     0.09755937     0.15916263
               0.23128650     0.31572767     0.41458969     0.53033537
               0.66584808     0.82450364     1.01025438     1.22772762
               1.48234092     1.78043706     2.12944203     2.53805004
               3.01644009     3.57652955     4.23227104     5.00000000

     Gradients computed in reciprocal space

     ************************************************************************


     Starting wfc are  654 randomized atomic wfcs

     total cpu time spent up to now is      134.2 secs

     Self-consistent Calculation

     iteration #  1     ecut=    50.00 Ry     beta=0.70
     Davidson diagonalization with overlap
     ethr =  1.00E-02,  avg # of iterations =  3.0

     Threshold (ethr) on eigenvalues was too large:
     Diagonalizing with lowered threshold

     Davidson diagonalization with overlap
     ethr =  4.18E-04,  avg # of iterations =  2.0

     negative rho (up, down):  1.947E+00 0.000E+00

     total cpu time spent up to now is      621.1 secs

     total energy              =   -7423.05968921 Ry
     Harris-Foulkes estimate   =   -7426.06361442 Ry
     estimated scf accuracy    <       3.71375715 Ry

     iteration #  2     ecut=    50.00 Ry     beta=0.70
     Davidson diagonalization with overlap
     ethr =  4.64E-04,  avg # of iterations = 11.5

     negative rho (up, down):  1.943E+00 0.000E+00

     total cpu time spent up to now is     1375.8 secs

     total energy              =   -7415.39192534 Ry
     Harris-Foulkes estimate   =   -7432.51882519 Ry
     estimated scf accuracy    <      88.64309914 Ry

     iteration #  3     ecut=    50.00 Ry     beta=0.70
     Davidson diagonalization with overlap
     ethr =  4.64E-04,  avg # of iterations =  6.0

     negative rho (up, down):  1.953E+00 0.000E+00

     total cpu time spent up to now is     1834.1 secs

     total energy              =   -7424.11850027 Ry
     Harris-Foulkes estimate   =   -7425.87175084 Ry
     estimated scf accuracy    <       7.31152155 Ry

     iteration #  4     ecut=    50.00 Ry     beta=0.70
     Davidson diagonalization with overlap
     ethr =  4.64E-04,  avg # of iterations =  5.5

     negative rho (up, down):  1.956E+00 0.000E+00

     total cpu time spent up to now is     2097.7 secs

     total energy              =   -7424.84406993 Ry
     Harris-Foulkes estimate   =   -7425.66686010 Ry
     estimated scf accuracy    <       4.48011447 Ry

     iteration #  5     ecut=    50.00 Ry     beta=0.70
     Davidson diagonalization with overlap
     ethr =  4.64E-04,  avg # of iterations =  5.0

     negative rho (up, down):  1.963E+00 0.000E+00

     total cpu time spent up to now is     2377.1 secs

     total energy              =   -7425.08591714 Ry
     Harris-Foulkes estimate   =   -7425.57201200 Ry
     estimated scf accuracy    <       3.65224494 Ry

     iteration #  6     ecut=    50.00 Ry     beta=0.70
     Davidson diagonalization with overlap
     ethr =  4.57E-04,  avg # of iterations =  2.0

     negative rho (up, down):  1.967E+00 0.000E+00

     total cpu time spent up to now is     2605.0 secs

     total energy              =   -7425.27657171 Ry
     Harris-Foulkes estimate   =   -7425.33544975 Ry
     estimated scf accuracy    <       0.21002371 Ry

     iteration #  7     ecut=    50.00 Ry     beta=0.70
     Davidson diagonalization with overlap
     ethr =  2.63E-05,  avg # of iterations =  7.2

     negative rho (up, down):  1.970E+00 0.000E+00

     total cpu time spent up to now is     2922.7 secs

     total energy              =   -7425.28225447 Ry
     Harris-Foulkes estimate   =   -7425.32995769 Ry
     estimated scf accuracy    <       0.25098106 Ry

     iteration #  8     ecut=    50.00 Ry     beta=0.70
     Davidson diagonalization with overlap
     ethr =  2.63E-05,  avg # of iterations =  3.0

     negative rho (up, down):  1.971E+00 0.000E+00

     total cpu time spent up to now is     3163.4 secs

     total energy              =   -7425.29137689 Ry
     Harris-Foulkes estimate   =   -7425.31040379 Ry
     estimated scf accuracy    <       0.07946004 Ry

     iteration #  9     ecut=    50.00 Ry     beta=0.70
     Davidson diagonalization with overlap
     ethr =  9.93E-06,  avg # of iterations =  7.2

     negative rho (up, down):  1.972E+00 0.000E+00

     total cpu time spent up to now is     3445.3 secs

     total energy              =   -7425.29197187 Ry
     Harris-Foulkes estimate   =   -7425.30213507 Ry
     estimated scf accuracy    <       0.03459178 Ry

     iteration # 10     ecut=    50.00 Ry     beta=0.70
     Davidson diagonalization with overlap
     ethr =  4.32E-06,  avg # of iterations =  9.7

     negative rho (up, down):  1.973E+00 0.000E+00

     total cpu time spent up to now is     3770.9 secs

     total energy              =   -7425.29285563 Ry
     Harris-Foulkes estimate   =   -7425.29623060 Ry
     estimated scf accuracy    <       0.01037430 Ry

     iteration # 11     ecut=    50.00 Ry     beta=0.70
     Davidson diagonalization with overlap
     ethr =  1.30E-06,  avg # of iterations =  5.0

     negative rho (up, down):  1.974E+00 0.000E+00

     total cpu time spent up to now is     4031.3 secs

     total energy              =   -7425.29312128 Ry
     Harris-Foulkes estimate   =   -7425.29446514 Ry
     estimated scf accuracy    <       0.00456005 Ry

     iteration # 12     ecut=    50.00 Ry     beta=0.70
     Davidson diagonalization with overlap
     ethr =  5.70E-07,  avg # of iterations =  3.0

     negative rho (up, down):  1.974E+00 0.000E+00

     total cpu time spent up to now is     4272.9 secs

     total energy              =   -7425.29235711 Ry
     Harris-Foulkes estimate   =   -7425.29374314 Ry
     estimated scf accuracy    <       0.00247533 Ry

     iteration # 13     ecut=    50.00 Ry     beta=0.70
     Davidson diagonalization with overlap
     ethr =  3.09E-07,  avg # of iterations =  6.3

     negative rho (up, down):  1.974E+00 0.000E+00

     total cpu time spent up to now is     4668.0 secs

     total energy              =   -7425.29098233 Ry
     Harris-Foulkes estimate   =   -7425.29558537 Ry
     estimated scf accuracy    <       0.02507624 Ry

     iteration # 14     ecut=    50.00 Ry     beta=0.70
     Davidson diagonalization with overlap
     ethr =  3.09E-07,  avg # of iterations =  3.0

     negative rho (up, down):  1.974E+00 0.000E+00

     total cpu time spent up to now is     4962.2 secs

     total energy              =   -7425.29312314 Ry
     Harris-Foulkes estimate   =   -7425.29328733 Ry
     estimated scf accuracy    <       0.00047455 Ry

     iteration # 15     ecut=    50.00 Ry     beta=0.70
     Davidson diagonalization with overlap
     ethr =  5.93E-08,  avg # of iterations =  2.0

     negative rho (up, down):  1.974E+00 0.000E+00

     total cpu time spent up to now is     5196.0 secs

     total energy              =   -7425.29312813 Ry
     Harris-Foulkes estimate   =   -7425.29329297 Ry
     estimated scf accuracy    <       0.00080355 Ry

     iteration # 16     ecut=    50.00 Ry     beta=0.70
     Davidson diagonalization with overlap
     ethr =  5.93E-08,  avg # of iterations =  2.0

     negative rho (up, down):  1.974E+00 0.000E+00

     total cpu time spent up to now is     5427.5 secs

     total energy              =   -7425.29309331 Ry
     Harris-Foulkes estimate   =   -7425.29337865 Ry
     estimated scf accuracy    <       0.00237154 Ry

     iteration # 17     ecut=    50.00 Ry     beta=0.70
     Davidson diagonalization with overlap
     ethr =  5.93E-08,  avg # of iterations =  2.0

     negative rho (up, down):  1.974E+00 0.000E+00

     total cpu time spent up to now is     5645.0 secs

     total energy              =   -7425.29322726 Ry
     Harris-Foulkes estimate   =   -7425.29323716 Ry
     estimated scf accuracy    <       0.00003126 Ry

     iteration # 18     ecut=    50.00 Ry     beta=0.70
     Davidson diagonalization with overlap
     ethr =  3.91E-09,  avg # of iterations =  3.0

     negative rho (up, down):  1.974E+00 0.000E+00

     total cpu time spent up to now is     5894.0 secs

     total energy              =   -7425.29323172 Ry
     Harris-Foulkes estimate   =   -7425.29323750 Ry
     estimated scf accuracy    <       0.00002964 Ry

     iteration # 19     ecut=    50.00 Ry     beta=0.70
     Davidson diagonalization with overlap
     ethr =  3.70E-09,  avg # of iterations =  2.0

     negative rho (up, down):  1.974E+00 0.000E+00

     total cpu time spent up to now is     6105.3 secs

     total energy              =   -7425.29323440 Ry
     Harris-Foulkes estimate   =   -7425.29323534 Ry
     estimated scf accuracy    <       0.00000326 Ry

     iteration # 20     ecut=    50.00 Ry     beta=0.70
     Davidson diagonalization with overlap
     ethr =  4.08E-10,  avg # of iterations =  2.0

     negative rho (up, down):  1.974E+00 0.000E+00

     total cpu time spent up to now is     6335.5 secs

     total energy              =   -7425.29323481 Ry
     Harris-Foulkes estimate   =   -7425.29323534 Ry
     estimated scf accuracy    <       0.00000216 Ry

     iteration # 21     ecut=    50.00 Ry     beta=0.70
     Davidson diagonalization with overlap
     ethr =  2.70E-10,  avg # of iterations =  2.0

     negative rho (up, down):  1.974E+00 0.000E+00

     total cpu time spent up to now is     6556.2 secs

     total energy              =   -7425.29323508 Ry
     Harris-Foulkes estimate   =   -7425.29323521 Ry
     estimated scf accuracy    <       0.00000052 Ry

     iteration # 22     ecut=    50.00 Ry     beta=0.70
     Davidson diagonalization with overlap
     ethr =  6.56E-11,  avg # of iterations =  2.0

     negative rho (up, down):  1.974E+00 0.000E+00

     total cpu time spent up to now is     6795.2 secs

     total energy              =   -7425.29323516 Ry
     Harris-Foulkes estimate   =   -7425.29323521 Ry
     estimated scf accuracy    <       0.00000018 Ry

     iteration # 23     ecut=    50.00 Ry     beta=0.70
     Davidson diagonalization with overlap
     ethr =  2.28E-11,  avg # of iterations =  3.0

     negative rho (up, down):  1.974E+00 0.000E+00

     total cpu time spent up to now is     7066.7 secs

     total energy              =   -7425.29323514 Ry
     Harris-Foulkes estimate   =   -7425.29323523 Ry
     estimated scf accuracy    <       0.00000036 Ry

     iteration # 24     ecut=    50.00 Ry     beta=0.70
     Davidson diagonalization with overlap
     ethr =  2.28E-11,  avg # of iterations =  2.0

     negative rho (up, down):  1.974E+00 0.000E+00

     total cpu time spent up to now is     7309.8 secs

     total energy              =   -7425.29323520 Ry
     Harris-Foulkes estimate   =   -7425.29323520 Ry
     estimated scf accuracy    <       0.00000007 Ry

     iteration # 25     ecut=    50.00 Ry     beta=0.70
     Davidson diagonalization with overlap
     ethr =  8.60E-12,  avg # of iterations =  2.0

     negative rho (up, down):  1.974E+00 0.000E+00

     total cpu time spent up to now is     7545.0 secs

     total energy              =   -7425.29323521 Ry
     Harris-Foulkes estimate   =   -7425.29323521 Ry
     estimated scf accuracy    <       0.00000002 Ry

     iteration # 26     ecut=    50.00 Ry     beta=0.70
     Davidson diagonalization with overlap
     ethr =  1.94E-12,  avg # of iterations =  2.0

     negative rho (up, down):  1.974E+00 0.000E+00

     total cpu time spent up to now is     7763.6 secs

     total energy              =   -7425.29323522 Ry
     Harris-Foulkes estimate   =   -7425.29323522 Ry
     estimated scf accuracy    <       0.00000003 Ry

     iteration # 27     ecut=    50.00 Ry     beta=0.70
     Davidson diagonalization with overlap
     ethr =  1.94E-12,  avg # of iterations =  3.0

     negative rho (up, down):  1.974E+00 0.000E+00

     total cpu time spent up to now is     7997.2 secs

     total energy              =   -7425.29323521 Ry
     Harris-Foulkes estimate   =   -7425.29323522 Ry
     estimated scf accuracy    <       0.00000002 Ry

     iteration # 28     ecut=    50.00 Ry     beta=0.70
     Davidson diagonalization with overlap
     ethr =  1.94E-12,  avg # of iterations =  2.0

     negative rho (up, down):  1.974E+00 0.000E+00

     total cpu time spent up to now is     8215.8 secs

     End of self-consistent calculation

          k = 0.2500 0.2500 0.0833 (167653 PWs)   bands (ev):

   -19.2768  -7.1709  -6.8583  -6.3325  -6.3317  -5.9031  -5.4938  -5.4013
    -5.4006  -5.2050  -5.2050  -5.0876  -5.0868  -5.0084  -4.9860  -4.9128
    -4.8277  -4.8239  -4.7858  -4.7848  -4.6250  -4.6072  -4.6064  -4.6058
    -4.5991  -4.5436  -4.5435  -4.5320  -4.5312  -4.4944  -4.4832  -4.4815
    -4.4397  -4.4396  -4.4062  -4.4050  -4.3552  -4.3527  -4.3437  -4.3410
    -4.3355  -4.3225  -4.3223  -4.2827  -4.2632  -4.2630  -4.2559  -4.2558
    -4.2248  -4.1762  -4.1593  -4.1584  -4.1576  -4.1550  -4.1469  -4.1415
    -4.1414  -4.1408  -4.0793  -4.0757  -4.0277  -4.0255  -4.0145  -3.9884
    -3.9875  -3.9692  -3.9647  -3.9646  -3.9602  -3.9578  -3.9086  -3.9080
    -3.8965  -3.8948  -3.7929  -3.7895  -3.7850  -3.7833  -3.7462  -3.7434
    -3.7222  -3.6932  -3.6930  -3.6645  -3.6636  -3.6438  -3.6425  -3.6315
    -3.6284  -3.5752  -3.5733  -3.5601  -3.5391  -3.5316  -3.5272  -3.5268
    -3.5255  -3.4996  -3.4988  -3.4648  -3.4616  -3.4544  -3.4391  -3.4183
    -3.4056  -3.3893  -3.3737  -3.3603  -3.3453  -3.3234  -3.3228  -3.2857
    -3.2793  -3.2789  -3.2647  -3.2613  -3.2595  -3.2570  -3.2211  -3.2107
    -3.1708  -3.1706  -3.1622  -3.1534  -3.1525  -3.1501  -3.1269  -3.1269
    -3.1061  -3.1055  -3.1044  -3.0784  -3.0776  -3.0702  -3.0669  -3.0660
    -3.0307  -3.0282  -2.9927  -2.9909  -2.9903  -2.9876  -2.9873  -2.9078
    -2.8983  -2.8953  -2.8940  -2.8932  -2.8920  -2.8883  -2.8877  -2.8865
    -2.8862  -2.8769  -2.8691  -2.8529  -2.8495  -2.8483  -2.8479  -2.8346
    -2.8294  -2.7922  -2.7910  -2.7906  -2.7860  -2.7857  -2.7681  -2.7675
    -2.7592  -2.7588  -2.7563  -2.6974  -2.6972  -2.6915  -2.6913  -2.6864
    -2.6863  -2.6586  -2.5995  -2.5986  -2.5979  -2.5953  -2.5842  -2.5828
    -2.5783  -2.5677  -2.5660  -2.5324  -2.5296  -2.5224  -2.5202  -2.5200
    -2.5194  -2.4815  -2.4803  -2.4708  -2.4705  -2.4690  -2.4680  -2.4253
    -2.4092  -2.4040  -2.3516  -2.3508  -2.3354  -2.3314  -2.3263  -2.3246
    -2.2776  -2.2766  -2.2539  -2.2380  -2.2246  -2.2229  -2.2213  -2.2006
    -2.1992  -2.1909  -2.1734  -2.1383  -2.1334  -2.1197  -2.1193  -2.1165
    -2.1088  -2.1068  -2.0957  -2.0918  -2.0911  -2.0870  -2.0834  -2.0808
    -2.0807  -2.0705  -2.0691  -2.0535  -2.0507  -2.0497  -2.0432  -2.0403
    -2.0391  -2.0173  -2.0158  -2.0056  -2.0038  -1.9976  -1.9970  -1.9590
    -1.9262  -1.9260  -1.8904  -1.8731  -1.8730  -1.8630  -1.8610  -1.8386
    -1.8377  -1.8259  -1.8227  -1.8218  -1.8213  -1.8202  -1.8180  -1.7861
    -1.7852  -1.7850  -1.7433  -1.7397  -1.7015  -1.6988  -1.6531  -1.6519
    -1.6390  -1.6208  -1.6152  -1.6096  -1.6090  -1.5916  -1.5806  -1.5730
    -1.5726  -1.5688  -1.5672  -1.5666  -1.5665  -1.5643  -1.5444  -1.5429
    -1.5319  -1.5169  -1.4987  -1.4978  -1.4816  -1.4709  -1.4693  -1.4671
    -1.4629  -1.4595  -1.4409  -1.4384  -1.4284  -1.4223  -1.4108  -1.4033
    -1.3907  -1.3863  -1.3772  -1.3558  -1.3539  -1.3480  -1.3404  -1.3114
    -1.3065  -1.3032  -1.2960  -1.2953  -1.2815  -1.2734  -1.2728  -1.2610
    -1.2541  -1.2536  -1.2420  -1.2412  -1.2397  -1.2366  -1.2268  -1.2151
    -1.2113  -1.2075  -1.2060  -1.1944  -1.1905  -1.1857  -1.1817  -1.1446
    -1.1405  -1.1367  -1.1349  -1.1342  -1.1278  -1.0962  -1.0786  -1.0772
    -1.0771  -1.0758  -1.0734  -1.0681  -1.0673  -1.0527  -1.0415  -1.0160
    -1.0153  -1.0088  -1.0084  -0.9866  -0.9857  -0.9763  -0.9469  -0.9386
    -0.9128  -0.9106  -0.8832  -0.8831  -0.8798  -0.8790  -0.8777  -0.8731
    -0.8694  -0.8691  -0.8646  -0.8638  -0.8325  -0.8322  -0.8123  -0.8118
    -0.8092  -0.8078  -0.8064  -0.8000  -0.7880  -0.5145  -0.5011  -0.4430
    -0.4399  -0.4066  -0.2471  -0.1816  -0.1802  -0.1463   0.1379   0.1407
     0.4702   0.4716   0.5669   0.5673   0.6067   0.6095   0.7527   0.7587
     0.8757   0.8784   0.9704   1.5630   1.5812   1.5822   1.6160   1.6271
     1.6761   1.6788   1.7524   1.7536   1.9580   1.9584   2.1979   2.2727
     2.2761   2.2903   2.6741   2.6761   2.7429   2.7451   2.7512   2.7529
     2.9029   2.9036   2.9617   3.0504   3.0541   3.2776   3.2881   3.4119
     3.4403   3.4406   3.7140   3.7153   3.8278   3.8442   3.8443   3.9236
     3.9367   4.0259   4.0322   4.2658   4.2686   4.3541   4.3630   4.4764
     4.4866   4.5091   4.5103   4.6745   5.1682   5.3206   5.3408   5.4145
     5.4178   5.5346   5.5925   5.5931   5.6579   5.7007   5.7111   5.7156
     5.7405   5.7574   5.7611   5.8008   6.0060   6.0712   6.0731   6.0931
     6.0992   6.1016   6.1079   6.1122   6.1143   6.1474   6.1932   6.1977

          k = 0.2500 0.2500-0.2500 (167588 PWs)   bands (ev):

   -19.2768  -7.1709  -6.8583  -6.3325  -6.3317  -5.9031  -5.4938  -5.4013
    -5.4006  -5.2050  -5.2050  -5.0876  -5.0868  -5.0084  -4.9860  -4.9128
    -4.8277  -4.8239  -4.7857  -4.7848  -4.6250  -4.6073  -4.6064  -4.6058
    -4.5991  -4.5436  -4.5435  -4.5320  -4.5312  -4.4944  -4.4832  -4.4815
    -4.4397  -4.4396  -4.4062  -4.4050  -4.3552  -4.3527  -4.3437  -4.3411
    -4.3356  -4.3225  -4.3223  -4.2827  -4.2632  -4.2630  -4.2559  -4.2558
    -4.2248  -4.1762  -4.1593  -4.1584  -4.1576  -4.1550  -4.1469  -4.1415
    -4.1414  -4.1408  -4.0793  -4.0757  -4.0277  -4.0255  -4.0145  -3.9884
    -3.9875  -3.9692  -3.9647  -3.9646  -3.9602  -3.9578  -3.9086  -3.9080
    -3.8965  -3.8948  -3.7929  -3.7895  -3.7850  -3.7833  -3.7462  -3.7434
    -3.7222  -3.6932  -3.6930  -3.6645  -3.6636  -3.6438  -3.6425  -3.6315
    -3.6284  -3.5752  -3.5733  -3.5601  -3.5391  -3.5316  -3.5272  -3.5268
    -3.5255  -3.4996  -3.4988  -3.4648  -3.4616  -3.4544  -3.4391  -3.4183
    -3.4056  -3.3893  -3.3736  -3.3603  -3.3453  -3.3233  -3.3227  -3.2857
    -3.2793  -3.2789  -3.2647  -3.2613  -3.2595  -3.2570  -3.2211  -3.2107
    -3.1708  -3.1706  -3.1622  -3.1534  -3.1525  -3.1501  -3.1269  -3.1269
    -3.1061  -3.1055  -3.1044  -3.0784  -3.0776  -3.0701  -3.0669  -3.0660
    -3.0307  -3.0282  -2.9927  -2.9909  -2.9903  -2.9876  -2.9873  -2.9078
    -2.8983  -2.8953  -2.8940  -2.8932  -2.8920  -2.8883  -2.8877  -2.8865
    -2.8862  -2.8769  -2.8691  -2.8529  -2.8495  -2.8483  -2.8479  -2.8346
    -2.8294  -2.7922  -2.7910  -2.7906  -2.7860  -2.7857  -2.7681  -2.7675
    -2.7592  -2.7588  -2.7563  -2.6974  -2.6972  -2.6915  -2.6913  -2.6864
    -2.6863  -2.6586  -2.5995  -2.5986  -2.5979  -2.5953  -2.5842  -2.5828
    -2.5783  -2.5677  -2.5660  -2.5324  -2.5296  -2.5224  -2.5202  -2.5200
    -2.5194  -2.4815  -2.4803  -2.4708  -2.4705  -2.4690  -2.4680  -2.4253
    -2.4092  -2.4040  -2.3516  -2.3508  -2.3354  -2.3314  -2.3263  -2.3246
    -2.2776  -2.2766  -2.2539  -2.2381  -2.2246  -2.2229  -2.2213  -2.2006
    -2.1992  -2.1909  -2.1734  -2.1383  -2.1334  -2.1197  -2.1193  -2.1165
    -2.1088  -2.1068  -2.0957  -2.0918  -2.0911  -2.0870  -2.0834  -2.0808
    -2.0807  -2.0705  -2.0691  -2.0535  -2.0507  -2.0497  -2.0432  -2.0403
    -2.0391  -2.0173  -2.0158  -2.0056  -2.0038  -1.9976  -1.9970  -1.9590
    -1.9262  -1.9260  -1.8904  -1.8731  -1.8730  -1.8629  -1.8610  -1.8385
    -1.8377  -1.8259  -1.8227  -1.8218  -1.8213  -1.8202  -1.8180  -1.7861
    -1.7852  -1.7850  -1.7433  -1.7397  -1.7015  -1.6988  -1.6531  -1.6519
    -1.6391  -1.6208  -1.6152  -1.6096  -1.6090  -1.5916  -1.5806  -1.5730
    -1.5726  -1.5688  -1.5672  -1.5666  -1.5665  -1.5643  -1.5444  -1.5429
    -1.5319  -1.5169  -1.4987  -1.4978  -1.4816  -1.4709  -1.4693  -1.4671
    -1.4629  -1.4595  -1.4409  -1.4384  -1.4284  -1.4223  -1.4108  -1.4033
    -1.3907  -1.3863  -1.3772  -1.3558  -1.3539  -1.3480  -1.3404  -1.3113
    -1.3065  -1.3032  -1.2960  -1.2953  -1.2815  -1.2734  -1.2728  -1.2610
    -1.2541  -1.2536  -1.2420  -1.2412  -1.2397  -1.2366  -1.2268  -1.2151
    -1.2113  -1.2074  -1.2060  -1.1944  -1.1905  -1.1857  -1.1817  -1.1446
    -1.1405  -1.1367  -1.1349  -1.1342  -1.1278  -1.0962  -1.0786  -1.0772
    -1.0771  -1.0758  -1.0734  -1.0681  -1.0673  -1.0527  -1.0415  -1.0160
    -1.0153  -1.0088  -1.0084  -0.9866  -0.9857  -0.9763  -0.9469  -0.9386
    -0.9128  -0.9106  -0.8832  -0.8831  -0.8799  -0.8790  -0.8777  -0.8731
    -0.8694  -0.8691  -0.8646  -0.8638  -0.8325  -0.8322  -0.8123  -0.8118
    -0.8092  -0.8078  -0.8064  -0.8000  -0.7880  -0.5145  -0.5011  -0.4430
    -0.4399  -0.4066  -0.2471  -0.1816  -0.1802  -0.1463   0.1379   0.1407
     0.4702   0.4716   0.5669   0.5673   0.6067   0.6095   0.7527   0.7587
     0.8757   0.8784   0.9704   1.5630   1.5812   1.5822   1.6160   1.6271
     1.6761   1.6788   1.7524   1.7536   1.9580   1.9584   2.1979   2.2727
     2.2761   2.2903   2.6741   2.6761   2.7429   2.7451   2.7512   2.7529
     2.9029   2.9036   2.9617   3.0504   3.0541   3.2776   3.2881   3.4119
     3.4403   3.4406   3.7140   3.7153   3.8278   3.8442   3.8443   3.9236
     3.9368   4.0259   4.0322   4.2658   4.2686   4.3541   4.3630   4.4764
     4.4866   4.5090   4.5103   4.6746   5.1589   5.3207   5.3347   5.4140
     5.4178   5.5370   5.5925   5.5933   5.6665   5.7057   5.7091   5.7226
     5.7565   5.7604   5.7664   5.8011   6.0249   6.0725   6.0763   6.0929
     6.1001   6.1030   6.1080   6.1086   6.1143   6.1453   6.1898   6.2322

          k =-0.2500-0.2500 0.0833 (167653 PWs)   bands (ev):

   -19.2768  -7.1709  -6.8583  -6.3325  -6.3317  -5.9031  -5.4938  -5.4013
    -5.4006  -5.2050  -5.2050  -5.0876  -5.0868  -5.0084  -4.9860  -4.9128
    -4.8277  -4.8239  -4.7858  -4.7848  -4.6250  -4.6072  -4.6064  -4.6058
    -4.5991  -4.5436  -4.5435  -4.5320  -4.5312  -4.4944  -4.4832  -4.4815
    -4.4397  -4.4396  -4.4062  -4.4050  -4.3552  -4.3527  -4.3437  -4.3410
    -4.3355  -4.3225  -4.3223  -4.2827  -4.2632  -4.2630  -4.2559  -4.2558
    -4.2248  -4.1762  -4.1593  -4.1584  -4.1576  -4.1550  -4.1469  -4.1415
    -4.1414  -4.1408  -4.0793  -4.0757  -4.0277  -4.0255  -4.0145  -3.9884
    -3.9875  -3.9692  -3.9647  -3.9646  -3.9602  -3.9578  -3.9086  -3.9080
    -3.8965  -3.8948  -3.7929  -3.7895  -3.7850  -3.7833  -3.7462  -3.7434
    -3.7222  -3.6932  -3.6930  -3.6645  -3.6636  -3.6438  -3.6425  -3.6315
    -3.6284  -3.5752  -3.5733  -3.5601  -3.5391  -3.5316  -3.5272  -3.5268
    -3.5255  -3.4996  -3.4988  -3.4648  -3.4616  -3.4544  -3.4391  -3.4183
    -3.4056  -3.3893  -3.3737  -3.3603  -3.3453  -3.3234  -3.3228  -3.2857
    -3.2793  -3.2789  -3.2647  -3.2613  -3.2595  -3.2570  -3.2211  -3.2107
    -3.1708  -3.1706  -3.1622  -3.1534  -3.1525  -3.1501  -3.1269  -3.1269
    -3.1061  -3.1055  -3.1044  -3.0784  -3.0776  -3.0702  -3.0669  -3.0660
    -3.0307  -3.0282  -2.9927  -2.9909  -2.9903  -2.9876  -2.9873  -2.9078
    -2.8983  -2.8953  -2.8940  -2.8932  -2.8920  -2.8883  -2.8877  -2.8865
    -2.8862  -2.8769  -2.8691  -2.8529  -2.8495  -2.8483  -2.8479  -2.8346
    -2.8294  -2.7922  -2.7910  -2.7906  -2.7860  -2.7857  -2.7681  -2.7675
    -2.7592  -2.7588  -2.7563  -2.6974  -2.6972  -2.6915  -2.6913  -2.6864
    -2.6863  -2.6586  -2.5995  -2.5986  -2.5979  -2.5953  -2.5842  -2.5828
    -2.5783  -2.5677  -2.5660  -2.5324  -2.5296  -2.5224  -2.5202  -2.5200
    -2.5194  -2.4815  -2.4803  -2.4708  -2.4705  -2.4690  -2.4680  -2.4253
    -2.4092  -2.4040  -2.3516  -2.3508  -2.3354  -2.3314  -2.3263  -2.3246
    -2.2776  -2.2766  -2.2539  -2.2380  -2.2246  -2.2229  -2.2213  -2.2006
    -2.1992  -2.1909  -2.1734  -2.1383  -2.1334  -2.1197  -2.1193  -2.1165
    -2.1088  -2.1068  -2.0957  -2.0918  -2.0911  -2.0870  -2.0834  -2.0808
    -2.0807  -2.0705  -2.0691  -2.0535  -2.0507  -2.0497  -2.0432  -2.0403
    -2.0391  -2.0173  -2.0158  -2.0056  -2.0038  -1.9976  -1.9970  -1.9590
    -1.9262  -1.9260  -1.8904  -1.8731  -1.8730  -1.8630  -1.8610  -1.8386
    -1.8377  -1.8259  -1.8227  -1.8218  -1.8213  -1.8202  -1.8180  -1.7861
    -1.7852  -1.7850  -1.7433  -1.7397  -1.7015  -1.6988  -1.6531  -1.6519
    -1.6390  -1.6208  -1.6152  -1.6096  -1.6090  -1.5916  -1.5806  -1.5730
    -1.5726  -1.5688  -1.5672  -1.5666  -1.5665  -1.5643  -1.5444  -1.5429
    -1.5319  -1.5169  -1.4987  -1.4978  -1.4816  -1.4709  -1.4693  -1.4671
    -1.4629  -1.4595  -1.4409  -1.4384  -1.4284  -1.4223  -1.4108  -1.4033
    -1.3907  -1.3863  -1.3772  -1.3558  -1.3539  -1.3480  -1.3404  -1.3114
    -1.3065  -1.3032  -1.2960  -1.2953  -1.2815  -1.2734  -1.2728  -1.2610
    -1.2541  -1.2536  -1.2420  -1.2412  -1.2397  -1.2366  -1.2268  -1.2151
    -1.2113  -1.2075  -1.2060  -1.1944  -1.1905  -1.1857  -1.1817  -1.1446
    -1.1405  -1.1367  -1.1349  -1.1342  -1.1278  -1.0962  -1.0786  -1.0772
    -1.0771  -1.0758  -1.0734  -1.0681  -1.0673  -1.0527  -1.0415  -1.0160
    -1.0153  -1.0088  -1.0084  -0.9866  -0.9857  -0.9763  -0.9469  -0.9386
    -0.9128  -0.9106  -0.8832  -0.8831  -0.8798  -0.8790  -0.8777  -0.8731
    -0.8694  -0.8691  -0.8646  -0.8638  -0.8325  -0.8322  -0.8123  -0.8118
    -0.8092  -0.8078  -0.8064  -0.8000  -0.7880  -0.5145  -0.5011  -0.4430
    -0.4399  -0.4066  -0.2471  -0.1816  -0.1802  -0.1463   0.1379   0.1407
     0.4702   0.4716   0.5669   0.5673   0.6067   0.6095   0.7527   0.7587
     0.8757   0.8784   0.9704   1.5630   1.5812   1.5822   1.6160   1.6271
     1.6761   1.6788   1.7524   1.7536   1.9580   1.9584   2.1979   2.2727
     2.2761   2.2903   2.6741   2.6761   2.7429   2.7451   2.7512   2.7529
     2.9029   2.9036   2.9617   3.0504   3.0541   3.2776   3.2881   3.4119
     3.4403   3.4406   3.7140   3.7153   3.8278   3.8442   3.8443   3.9236
     3.9367   4.0259   4.0322   4.2658   4.2686   4.3541   4.3630   4.4764
     4.4866   4.5091   4.5103   4.6745   5.1678   5.3206   5.3421   5.4145
     5.4178   5.5306   5.5924   5.5930   5.6594   5.7021   5.7112   5.7190
     5.7404   5.7573   5.7611   5.8008   6.0076   6.0712   6.0730   6.0922
     6.0998   6.1012   6.1082   6.1115   6.1143   6.1472   6.1842   6.1959

          k =-0.2500 0.2500-0.0833 (167653 PWs)   bands (ev):

   -19.2768  -7.1709  -6.8583  -6.3333  -6.3309  -5.9031  -5.4938  -5.4018
    -5.4000  -5.2050  -5.2049  -5.0891  -5.0854  -5.0084  -4.9859  -4.9127
    -4.8276  -4.8239  -4.7860  -4.7847  -4.6250  -4.6073  -4.6068  -4.6054
    -4.5991  -4.5437  -4.5433  -4.5322  -4.5309  -4.4944  -4.4837  -4.4809
    -4.4398  -4.4395  -4.4063  -4.4049  -4.3557  -4.3523  -4.3436  -4.3411
    -4.3355  -4.3225  -4.3223  -4.2826  -4.2635  -4.2627  -4.2562  -4.2554
    -4.2246  -4.1757  -4.1596  -4.1591  -4.1580  -4.1543  -4.1470  -4.1415
    -4.1414  -4.1408  -4.0799  -4.0752  -4.0274  -4.0254  -4.0142  -3.9889
    -3.9873  -3.9700  -3.9649  -3.9642  -3.9603  -3.9578  -3.9085  -3.9080
    -3.8966  -3.8946  -3.7928  -3.7891  -3.7856  -3.7826  -3.7461  -3.7435
    -3.7222  -3.6936  -3.6930  -3.6648  -3.6632  -3.6443  -3.6426  -3.6318
    -3.6281  -3.5749  -3.5732  -3.5589  -3.5397  -3.5311  -3.5274  -3.5269
    -3.5259  -3.5018  -3.4988  -3.4662  -3.4616  -3.4511  -3.4396  -3.4167
    -3.4059  -3.3891  -3.3718  -3.3602  -3.3467  -3.3231  -3.3224  -3.2865
    -3.2790  -3.2787  -3.2645  -3.2616  -3.2596  -3.2588  -3.2212  -3.2103
    -3.1712  -3.1703  -3.1622  -3.1536  -3.1517  -3.1504  -3.1269  -3.1268
    -3.1065  -3.1057  -3.1036  -3.0778  -3.0774  -3.0702  -3.0672  -3.0654
    -3.0306  -3.0283  -2.9940  -2.9909  -2.9906  -2.9881  -2.9871  -2.9078
    -2.8983  -2.8957  -2.8936  -2.8929  -2.8922  -2.8887  -2.8873  -2.8866
    -2.8861  -2.8768  -2.8691  -2.8531  -2.8495  -2.8481  -2.8477  -2.8342
    -2.8292  -2.7923  -2.7910  -2.7905  -2.7869  -2.7852  -2.7684  -2.7672
    -2.7592  -2.7589  -2.7563  -2.6973  -2.6972  -2.6915  -2.6914  -2.6867
    -2.6855  -2.6589  -2.5995  -2.5982  -2.5975  -2.5954  -2.5842  -2.5826
    -2.5772  -2.5677  -2.5660  -2.5327  -2.5288  -2.5227  -2.5218  -2.5195
    -2.5189  -2.4817  -2.4801  -2.4713  -2.4701  -2.4691  -2.4677  -2.4253
    -2.4117  -2.4047  -2.3520  -2.3506  -2.3335  -2.3328  -2.3260  -2.3252
    -2.2783  -2.2757  -2.2538  -2.2386  -2.2240  -2.2231  -2.2212  -2.2003
    -2.1992  -2.1908  -2.1738  -2.1379  -2.1339  -2.1196  -2.1184  -2.1167
    -2.1086  -2.1067  -2.0956  -2.0920  -2.0912  -2.0868  -2.0841  -2.0811
    -2.0803  -2.0707  -2.0689  -2.0516  -2.0508  -2.0491  -2.0433  -2.0405
    -2.0389  -2.0175  -2.0156  -2.0042  -2.0040  -1.9977  -1.9960  -1.9590
    -1.9268  -1.9245  -1.8903  -1.8735  -1.8727  -1.8656  -1.8605  -1.8416
    -1.8376  -1.8276  -1.8228  -1.8223  -1.8209  -1.8204  -1.8171  -1.7861
    -1.7854  -1.7851  -1.7405  -1.7390  -1.7020  -1.7001  -1.6531  -1.6522
    -1.6406  -1.6171  -1.6126  -1.6105  -1.5974  -1.5933  -1.5802  -1.5747
    -1.5721  -1.5703  -1.5680  -1.5666  -1.5658  -1.5642  -1.5444  -1.5428
    -1.5358  -1.5166  -1.5074  -1.4976  -1.4829  -1.4711  -1.4687  -1.4678
    -1.4664  -1.4608  -1.4428  -1.4393  -1.4311  -1.4231  -1.4110  -1.4023
    -1.3925  -1.3882  -1.3580  -1.3573  -1.3490  -1.3481  -1.3456  -1.3134
    -1.3108  -1.3043  -1.3027  -1.2953  -1.2815  -1.2745  -1.2712  -1.2622
    -1.2555  -1.2512  -1.2434  -1.2405  -1.2399  -1.2271  -1.2237  -1.2157
    -1.2101  -1.2078  -1.2071  -1.1913  -1.1909  -1.1846  -1.1692  -1.1434
    -1.1410  -1.1373  -1.1351  -1.1346  -1.1326  -1.0964  -1.0792  -1.0772
    -1.0765  -1.0755  -1.0720  -1.0682  -1.0641  -1.0544  -1.0525  -1.0168
    -1.0112  -1.0088  -1.0075  -0.9867  -0.9856  -0.9764  -0.9468  -0.9388
    -0.9129  -0.9102  -0.8835  -0.8830  -0.8799  -0.8796  -0.8776  -0.8734
    -0.8694  -0.8692  -0.8657  -0.8637  -0.8327  -0.8317  -0.8137  -0.8103
    -0.8082  -0.8067  -0.8064  -0.8038  -0.7882  -0.5146  -0.5011  -0.4458
    -0.4394  -0.4064  -0.2472  -0.1820  -0.1800  -0.1435   0.1379   0.1402
     0.4676   0.4754   0.5664   0.5678   0.6065   0.6103   0.7512   0.7564
     0.8757   0.8785   0.9712   1.5646   1.5810   1.5824   1.6170   1.6269
     1.6686   1.6845   1.7501   1.7553   1.9568   1.9598   2.1995   2.2710
     2.2797   2.2902   2.6684   2.6824   2.7431   2.7445   2.7510   2.7533
     2.9023   2.9040   2.9599   3.0461   3.0573   3.2778   3.2838   3.4124
     3.4384   3.4432   3.7101   3.7179   3.8321   3.8441   3.8450   3.9119
     3.9479   4.0256   4.0326   4.2650   4.2690   4.3567   4.3621   4.4774
     4.4855   4.5034   4.5182   4.6733   5.1600   5.3283   5.3369   5.4120
     5.4207   5.5271   5.5888   5.5968   5.6537   5.7020   5.7073   5.7149
     5.7516   5.7594   5.7638   5.8001   6.0196   6.0603   6.0800   6.0948
     6.0970   6.1037   6.1075   6.1102   6.1142   6.1551   6.1674   6.2106

          k = 0.2500-0.2500-0.0833 (167653 PWs)   bands (ev):

   -19.2768  -7.1709  -6.8583  -6.3333  -6.3309  -5.9031  -5.4938  -5.4018
    -5.4000  -5.2050  -5.2049  -5.0891  -5.0854  -5.0084  -4.9859  -4.9127
    -4.8276  -4.8239  -4.7860  -4.7847  -4.6250  -4.6073  -4.6068  -4.6054
    -4.5991  -4.5437  -4.5433  -4.5322  -4.5309  -4.4944  -4.4837  -4.4809
    -4.4398  -4.4395  -4.4063  -4.4049  -4.3557  -4.3523  -4.3436  -4.3411
    -4.3355  -4.3225  -4.3223  -4.2826  -4.2635  -4.2627  -4.2562  -4.2554
    -4.2246  -4.1757  -4.1596  -4.1591  -4.1580  -4.1543  -4.1470  -4.1415
    -4.1414  -4.1408  -4.0799  -4.0752  -4.0274  -4.0254  -4.0142  -3.9889
    -3.9873  -3.9700  -3.9649  -3.9642  -3.9603  -3.9578  -3.9085  -3.9080
    -3.8966  -3.8946  -3.7928  -3.7891  -3.7856  -3.7826  -3.7461  -3.7435
    -3.7222  -3.6936  -3.6930  -3.6648  -3.6632  -3.6443  -3.6426  -3.6318
    -3.6281  -3.5749  -3.5732  -3.5589  -3.5397  -3.5311  -3.5274  -3.5269
    -3.5259  -3.5018  -3.4988  -3.4662  -3.4616  -3.4511  -3.4396  -3.4167
    -3.4059  -3.3891  -3.3718  -3.3602  -3.3467  -3.3231  -3.3224  -3.2865
    -3.2790  -3.2787  -3.2645  -3.2616  -3.2596  -3.2588  -3.2212  -3.2103
    -3.1712  -3.1703  -3.1622  -3.1536  -3.1517  -3.1504  -3.1269  -3.1268
    -3.1065  -3.1057  -3.1036  -3.0778  -3.0774  -3.0702  -3.0672  -3.0654
    -3.0306  -3.0283  -2.9940  -2.9909  -2.9906  -2.9881  -2.9871  -2.9078
    -2.8983  -2.8957  -2.8936  -2.8929  -2.8922  -2.8887  -2.8873  -2.8866
    -2.8861  -2.8768  -2.8691  -2.8531  -2.8495  -2.8481  -2.8477  -2.8342
    -2.8292  -2.7923  -2.7910  -2.7905  -2.7869  -2.7852  -2.7684  -2.7672
    -2.7592  -2.7589  -2.7563  -2.6973  -2.6972  -2.6915  -2.6914  -2.6867
    -2.6855  -2.6589  -2.5995  -2.5982  -2.5975  -2.5954  -2.5842  -2.5826
    -2.5772  -2.5677  -2.5660  -2.5327  -2.5288  -2.5227  -2.5218  -2.5195
    -2.5189  -2.4817  -2.4801  -2.4713  -2.4701  -2.4691  -2.4677  -2.4253
    -2.4117  -2.4047  -2.3520  -2.3506  -2.3335  -2.3328  -2.3260  -2.3252
    -2.2783  -2.2757  -2.2538  -2.2386  -2.2240  -2.2231  -2.2212  -2.2003
    -2.1992  -2.1908  -2.1738  -2.1379  -2.1339  -2.1196  -2.1184  -2.1167
    -2.1086  -2.1067  -2.0956  -2.0920  -2.0912  -2.0868  -2.0841  -2.0811
    -2.0803  -2.0707  -2.0689  -2.0516  -2.0508  -2.0491  -2.0433  -2.0405
    -2.0389  -2.0175  -2.0156  -2.0042  -2.0040  -1.9977  -1.9960  -1.9590
    -1.9268  -1.9245  -1.8903  -1.8735  -1.8727  -1.8656  -1.8605  -1.8416
    -1.8376  -1.8276  -1.8228  -1.8223  -1.8209  -1.8204  -1.8171  -1.7861
    -1.7854  -1.7851  -1.7405  -1.7390  -1.7020  -1.7001  -1.6531  -1.6522
    -1.6406  -1.6171  -1.6126  -1.6105  -1.5974  -1.5933  -1.5802  -1.5747
    -1.5721  -1.5703  -1.5680  -1.5666  -1.5658  -1.5642  -1.5444  -1.5428
    -1.5358  -1.5166  -1.5074  -1.4976  -1.4829  -1.4711  -1.4687  -1.4678
    -1.4664  -1.4608  -1.4428  -1.4393  -1.4311  -1.4231  -1.4110  -1.4023
    -1.3925  -1.3882  -1.3580  -1.3573  -1.3490  -1.3481  -1.3456  -1.3134
    -1.3108  -1.3043  -1.3027  -1.2953  -1.2815  -1.2745  -1.2712  -1.2622
    -1.2555  -1.2512  -1.2434  -1.2405  -1.2399  -1.2271  -1.2237  -1.2157
    -1.2101  -1.2078  -1.2071  -1.1913  -1.1909  -1.1846  -1.1692  -1.1434
    -1.1410  -1.1373  -1.1351  -1.1346  -1.1326  -1.0964  -1.0792  -1.0772
    -1.0765  -1.0755  -1.0720  -1.0682  -1.0641  -1.0544  -1.0525  -1.0168
    -1.0112  -1.0088  -1.0075  -0.9867  -0.9856  -0.9764  -0.9468  -0.9388
    -0.9129  -0.9102  -0.8835  -0.8830  -0.8799  -0.8796  -0.8776  -0.8734
    -0.8694  -0.8692  -0.8657  -0.8637  -0.8327  -0.8317  -0.8137  -0.8103
    -0.8082  -0.8067  -0.8064  -0.8038  -0.7882  -0.5146  -0.5011  -0.4458
    -0.4394  -0.4064  -0.2472  -0.1820  -0.1800  -0.1435   0.1379   0.1402
     0.4676   0.4754   0.5664   0.5678   0.6065   0.6103   0.7512   0.7564
     0.8757   0.8785   0.9712   1.5646   1.5810   1.5824   1.6170   1.6269
     1.6686   1.6845   1.7501   1.7553   1.9568   1.9598   2.1995   2.2710
     2.2797   2.2902   2.6684   2.6824   2.7431   2.7445   2.7510   2.7533
     2.9023   2.9040   2.9599   3.0461   3.0573   3.2778   3.2838   3.4124
     3.4384   3.4432   3.7101   3.7179   3.8321   3.8441   3.8450   3.9119
     3.9479   4.0256   4.0326   4.2650   4.2690   4.3567   4.3621   4.4774
     4.4855   4.5034   4.5182   4.6733   5.1600   5.3283   5.3370   5.4120
     5.4207   5.5268   5.5887   5.5968   5.6538   5.7023   5.7072   5.7148
     5.7516   5.7594   5.7639   5.8001   6.0198   6.0604   6.0800   6.0958
     6.0961   6.1038   6.1075   6.1101   6.1142   6.1553   6.1666   6.2102

          k =-0.2500 0.2500 0.2500 (167588 PWs)   bands (ev):

   -19.2768  -7.1709  -6.8583  -6.3333  -6.3309  -5.9031  -5.4938  -5.4018
    -5.4000  -5.2050  -5.2049  -5.0891  -5.0854  -5.0084  -4.9859  -4.9127
    -4.8276  -4.8239  -4.7860  -4.7847  -4.6250  -4.6073  -4.6068  -4.6054
    -4.5991  -4.5437  -4.5433  -4.5322  -4.5309  -4.4944  -4.4837  -4.4809
    -4.4398  -4.4395  -4.4063  -4.4049  -4.3557  -4.3523  -4.3436  -4.3411
    -4.3355  -4.3225  -4.3223  -4.2826  -4.2635  -4.2627  -4.2562  -4.2554
    -4.2247  -4.1757  -4.1596  -4.1591  -4.1580  -4.1543  -4.1470  -4.1415
    -4.1414  -4.1408  -4.0799  -4.0752  -4.0274  -4.0254  -4.0142  -3.9889
    -3.9873  -3.9700  -3.9649  -3.9642  -3.9603  -3.9578  -3.9085  -3.9080
    -3.8966  -3.8946  -3.7928  -3.7891  -3.7856  -3.7826  -3.7461  -3.7435
    -3.7222  -3.6936  -3.6930  -3.6648  -3.6632  -3.6443  -3.6426  -3.6318
    -3.6281  -3.5749  -3.5732  -3.5589  -3.5397  -3.5311  -3.5274  -3.5269
    -3.5259  -3.5018  -3.4988  -3.4662  -3.4616  -3.4511  -3.4396  -3.4167
    -3.4059  -3.3891  -3.3718  -3.3602  -3.3467  -3.3231  -3.3224  -3.2865
    -3.2790  -3.2787  -3.2645  -3.2616  -3.2596  -3.2588  -3.2212  -3.2103
    -3.1712  -3.1703  -3.1622  -3.1536  -3.1517  -3.1504  -3.1269  -3.1268
    -3.1065  -3.1057  -3.1036  -3.0778  -3.0774  -3.0702  -3.0672  -3.0654
    -3.0306  -3.0283  -2.9940  -2.9909  -2.9906  -2.9881  -2.9871  -2.9078
    -2.8983  -2.8957  -2.8936  -2.8929  -2.8922  -2.8887  -2.8873  -2.8865
    -2.8861  -2.8768  -2.8691  -2.8531  -2.8495  -2.8481  -2.8477  -2.8342
    -2.8292  -2.7923  -2.7910  -2.7905  -2.7869  -2.7852  -2.7684  -2.7672
    -2.7592  -2.7589  -2.7563  -2.6973  -2.6972  -2.6915  -2.6914  -2.6867
    -2.6855  -2.6589  -2.5995  -2.5982  -2.5975  -2.5954  -2.5842  -2.5826
    -2.5772  -2.5677  -2.5660  -2.5327  -2.5288  -2.5227  -2.5218  -2.5195
    -2.5189  -2.4817  -2.4802  -2.4713  -2.4701  -2.4691  -2.4677  -2.4254
    -2.4117  -2.4047  -2.3520  -2.3506  -2.3336  -2.3328  -2.3260  -2.3252
    -2.2783  -2.2757  -2.2538  -2.2386  -2.2240  -2.2231  -2.2211  -2.2003
    -2.1992  -2.1908  -2.1738  -2.1379  -2.1339  -2.1196  -2.1184  -2.1167
    -2.1086  -2.1067  -2.0956  -2.0920  -2.0912  -2.0868  -2.0841  -2.0811
    -2.0803  -2.0707  -2.0689  -2.0516  -2.0508  -2.0491  -2.0433  -2.0405
    -2.0389  -2.0175  -2.0156  -2.0042  -2.0040  -1.9976  -1.9960  -1.9590
    -1.9268  -1.9245  -1.8903  -1.8735  -1.8727  -1.8656  -1.8605  -1.8415
    -1.8376  -1.8276  -1.8228  -1.8223  -1.8209  -1.8204  -1.8171  -1.7861
    -1.7854  -1.7851  -1.7405  -1.7390  -1.7020  -1.7001  -1.6531  -1.6522
    -1.6406  -1.6171  -1.6126  -1.6105  -1.5974  -1.5933  -1.5802  -1.5747
    -1.5721  -1.5703  -1.5680  -1.5666  -1.5658  -1.5642  -1.5444  -1.5428
    -1.5358  -1.5166  -1.5074  -1.4976  -1.4829  -1.4711  -1.4687  -1.4678
    -1.4663  -1.4608  -1.4428  -1.4393  -1.4311  -1.4231  -1.4110  -1.4024
    -1.3925  -1.3882  -1.3580  -1.3573  -1.3490  -1.3481  -1.3456  -1.3134
    -1.3108  -1.3043  -1.3027  -1.2953  -1.2815  -1.2745  -1.2712  -1.2622
    -1.2555  -1.2512  -1.2434  -1.2405  -1.2399  -1.2271  -1.2237  -1.2158
    -1.2101  -1.2078  -1.2071  -1.1913  -1.1909  -1.1846  -1.1692  -1.1434
    -1.1410  -1.1373  -1.1351  -1.1346  -1.1326  -1.0964  -1.0792  -1.0772
    -1.0765  -1.0755  -1.0720  -1.0682  -1.0641  -1.0544  -1.0525  -1.0168
    -1.0112  -1.0088  -1.0075  -0.9867  -0.9856  -0.9764  -0.9468  -0.9388
    -0.9129  -0.9102  -0.8835  -0.8830  -0.8799  -0.8796  -0.8776  -0.8734
    -0.8694  -0.8691  -0.8657  -0.8637  -0.8327  -0.8317  -0.8137  -0.8103
    -0.8082  -0.8067  -0.8064  -0.8038  -0.7882  -0.5146  -0.5011  -0.4458
    -0.4394  -0.4064  -0.2472  -0.1820  -0.1800  -0.1435   0.1379   0.1402
     0.4676   0.4754   0.5664   0.5678   0.6065   0.6103   0.7512   0.7565
     0.8757   0.8785   0.9712   1.5646   1.5810   1.5824   1.6170   1.6269
     1.6686   1.6845   1.7501   1.7553   1.9568   1.9598   2.1995   2.2710
     2.2797   2.2902   2.6684   2.6823   2.7431   2.7445   2.7510   2.7533
     2.9023   2.9040   2.9599   3.0461   3.0573   3.2778   3.2838   3.4124
     3.4384   3.4432   3.7101   3.7179   3.8321   3.8441   3.8450   3.9119
     3.9480   4.0256   4.0326   4.2650   4.2690   4.3567   4.3621   4.4774
     4.4855   4.5034   4.5182   4.6735   5.1516   5.3231   5.3349   5.4115
     5.4207   5.5289   5.5889   5.5973   5.6630   5.7066   5.7112   5.7363
     5.7558   5.7591   5.7613   5.8002   6.0407   6.0619   6.0791   6.0897
     6.0973   6.1060   6.1098   6.1141   6.1193   6.1354   6.1941   6.2231

     the Fermi energy is     0.8277 ev

!    total energy              =   -7425.29323522 Ry
     Harris-Foulkes estimate   =   -7425.29323522 Ry
     estimated scf accuracy    <          3.3E-09 Ry

     The total energy is the sum of the following terms:

     one-electron contribution =  -48781.96553089 Ry
     hartree contribution      =   24940.74079483 Ry
     xc contribution           =   -3604.23151204 Ry
     ewald contribution        =   20020.16559094 Ry
     smearing contrib. (-TS)   =      -0.00257806 Ry

     convergence has been achieved in  28 iterations

     Writing output data file 2647427.save

     init_run     :    123.74s CPU    132.74s WALL (       1 calls)
     electrons    :   7574.39s CPU   8082.12s WALL (       1 calls)

     Called by init_run:
     wfcinit      :     87.94s CPU     96.11s WALL (       1 calls)
     potinit      :      8.21s CPU      8.62s WALL (       1 calls)

     Called by electrons:
     c_bands      :   5759.39s CPU   6162.30s WALL (      29 calls)
     sum_band     :   1139.39s CPU   1222.97s WALL (      29 calls)
     v_of_rho     :    147.36s CPU    161.10s WALL (      29 calls)
     newd         :    543.62s CPU    550.38s WALL (      29 calls)
     mix_rho      :      4.46s CPU      4.85s WALL (      29 calls)
     vdW_energy   :     14.28s CPU     16.10s WALL (      29 calls)
     vdW_ffts     :     72.45s CPU     79.17s WALL (      58 calls)
     vdW_v        :     17.47s CPU     18.49s WALL (      29 calls)

     Called by c_bands:
     init_us_2    :     19.54s CPU     19.94s WALL (     354 calls)
     cegterg      :   5687.52s CPU   6089.32s WALL (     174 calls)

     Called by *egterg:
     h_psi        :   2498.70s CPU   2867.15s WALL (     842 calls)
     s_psi        :    390.31s CPU    392.17s WALL (     842 calls)
     g_psi        :      4.86s CPU      4.86s WALL (     662 calls)
     cdiaghg      :   1484.94s CPU   1488.90s WALL (     830 calls)

     Called by h_psi:
     add_vuspsi   :    391.67s CPU    393.63s WALL (     842 calls)

     General routines
     calbec       :    599.97s CPU    602.47s WALL (    1016 calls)
     fft          :    152.42s CPU    163.75s WALL (    1914 calls)
     ffts         :      2.25s CPU      2.60s WALL (      58 calls)
     fftw         :   1688.12s CPU   2055.91s WALL (  470606 calls)
     interpolate  :      6.56s CPU      7.47s WALL (      58 calls)
     davcio       :      0.00s CPU      0.35s WALL (       6 calls)

     Parallel routines
     fft_scatter  :   1186.25s CPU   1466.14s WALL (  472578 calls)

     PWSCF        :     2h 8m CPU        2h17m WALL


   This run was terminated on:  16:55:39   5Jul2015            

=------------------------------------------------------------------------------=
   JOB DONE.
=------------------------------------------------------------------------------=
