Setting SGE environment for SCC

     Program PWSCF v.5.1.2 starts on  3Jul2015 at 11:14: 2 

     This program is part of the open-source Quantum ESPRESSO suite
     for quantum simulation of materials; please cite
         "P. Giannozzi et al., J. Phys.:Condens. Matter 21 395502 (2009);
          URL http://www.quantum-espresso.org", 
     in publications or presentations arising from this work. More details at
     http://www.quantum-espresso.org/quote

     Parallel version (MPI), running on    32 processors
     R & G space division:  proc/nbgrp/npool/nimage =      32
     Reading input from hollow.O1.Au5859.d.2.5.phi.45.psi.0.in
Warning: card &IONS ignored
Warning: card / ignored
Warning: card &CELL ignored
Warning: card / ignored

     Current dimensions of program PWSCF are:
     Max number of different atomic species (ntypx) = 10
     Max number of k-points (npk) =  40000
     Max angular momentum in pseudopotentials (lmaxx) =  3

     IMPORTANT: XC functional enforced from input :
     Exchange-correlation      = VDW-DF ( 1  4  4  0 1 0)
     Any further DFT definition will be discarded
     Please, verify this is what you really want


     Subspace diagonalization in iterative solution of the eigenvalue problem:
     a serial algorithm will be used


     Parallelization info
     --------------------
     sticks:   dense  smooth     PW     G-vecs:    dense   smooth      PW
     Min         578     289     74               118518    41891    5486
     Max         579     290     75               118533    41932    5497
     Sum       18505    9265   2385              3792731  1341081  175711


     Title: 
     hollow.O1.Au5859.d.2.5.phi.45.psi.0                                        


     bravais-lattice index     =            8
     lattice parameter (alat)  =      24.1233  a.u.
     unit-cell volume          =   28076.2361 (a.u.)^3
     number of atoms/cell      =           75
     number of atomic types    =            3
     number of electrons       =       800.00
     number of Kohn-Sham states=          480
     kinetic-energy cutoff     =      50.0000  Ry
     charge density cutoff     =     400.0000  Ry
     convergence threshold     =      1.0E-08
     mixing beta               =       0.7000
     number of iterations used =            8  plain     mixing
     Exchange-correlation      = VDW-DF ( 1  4  4  0 1 0)

     celldm(1)=  24.123277  celldm(2)=   1.000000  celldm(3)=   2.000000
     celldm(4)=   0.000000  celldm(5)=   0.000000  celldm(6)=   0.000000

     crystal axes: (cart. coord. in units of alat)
               a(1) = (   1.000000   0.000000   0.000000 )  
               a(2) = (   0.000000   1.000000   0.000000 )  
               a(3) = (   0.000000   0.000000   2.000000 )  

     reciprocal axes: (cart. coord. in units 2 pi/alat)
               b(1) = (  1.000000  0.000000  0.000000 )  
               b(2) = (  0.000000  1.000000  0.000000 )  
               b(3) = (  0.000000  0.000000  0.500000 )  


     PseudoPot. # 1 for Au read from file:
     /home/scc/andrejb/qe/pseudo/Au.pbe-nd-van.UPF
     MD5 check sum: 458681b50f36d87ef23c61b04bba420a
     Pseudo is Ultrasoft + core correction, Zval = 11.0
     Generated by new atomic code, or converted to UPF format
     Using radial grid of  985 points,  3 beta functions with: 
                l(1) =   1
                l(2) =   2
                l(3) =   2
     Q(r) pseudized with  8 coefficients,  rinner =    1.100   1.100   1.100
                                                       1.100   1.100

     PseudoPot. # 2 for H  read from file:
     /home/scc/andrejb/qe/pseudo/H.pbe-van_ak.UPF
     MD5 check sum: 403db7282739603aa925980fa9b8608d
     Pseudo is Ultrasoft, Zval =  1.0
     Generated by new atomic code, or converted to UPF format
     Using radial grid of  615 points,  1 beta functions with: 
                l(1) =   0
     Q(r) pseudized with  8 coefficients,  rinner =    0.800

     PseudoPot. # 3 for O  read from file:
     /home/scc/andrejb/qe/pseudo/O.pbe-van_ak.UPF
     MD5 check sum: 4b8c549914a63cae506c6ff22b5af4fe
     Pseudo is Ultrasoft, Zval =  6.0
     Generated by new atomic code, or converted to UPF format
     Using radial grid of  737 points,  4 beta functions with: 
                l(1) =   0
                l(2) =   0
                l(3) =   1
                l(4) =   1
     Q(r) pseudized with  8 coefficients,  rinner =    0.800   0.800   0.800


     vdW kernel table read from file vdW_kernel_table
     MD5 check sum: 48e77a2e26edf626eeb0eaa751ad5cac

     atomic species   valence    mass     pseudopotential
        Au            11.00   196.96657     Au( 1.00)
        H              1.00     1.01000     H ( 1.00)
        O              6.00    16.00000     O ( 1.00)

     No symmetry found



   Cartesian axes

     site n.     atom                  positions (alat units)
         1           O   tau(   1) = (   0.1666051   0.1666105   0.6951546  )
         2           H   tau(   2) = (   0.1610146   0.1056232   0.7406485  )
         3           H   tau(   3) = (   0.1720135   0.2257614   0.7430122  )
         4           Au  tau(   4) = (   0.0000000   0.0000000   0.0000000  )
         5           Au  tau(   5) = (   0.3332217   0.0000000   0.0000000  )
         6           Au  tau(   6) = (   0.6664434   0.0000000   0.0000000  )
         7           Au  tau(   7) = (   0.1666109   0.1666109   0.0000000  )
         8           Au  tau(   8) = (   0.4998326   0.1666109   0.0000000  )
         9           Au  tau(   9) = (   0.8330542   0.1666109   0.0000000  )
        10           Au  tau(  10) = (   0.0000000   0.3332217   0.0000000  )
        11           Au  tau(  11) = (   0.3332217   0.3332217   0.0000000  )
        12           Au  tau(  12) = (   0.6664434   0.3332217   0.0000000  )
        13           Au  tau(  13) = (   0.1666109   0.4998326   0.0000000  )
        14           Au  tau(  14) = (   0.4998326   0.4998326   0.0000000  )
        15           Au  tau(  15) = (   0.8330542   0.4998326   0.0000000  )
        16           Au  tau(  16) = (   0.0000000   0.6664434   0.0000000  )
        17           Au  tau(  17) = (   0.3332217   0.6664434   0.0000000  )
        18           Au  tau(  18) = (   0.6664434   0.6664434   0.0000000  )
        19           Au  tau(  19) = (   0.1666109   0.8330542   0.0000000  )
        20           Au  tau(  20) = (   0.4998326   0.8330542   0.0000000  )
        21           Au  tau(  21) = (   0.8330542   0.8330542   0.0000000  )
        22           Au  tau(  22) = (   0.1666109   0.0000000   0.1666109  )
        23           Au  tau(  23) = (   0.4998326   0.0000000   0.1666109  )
        24           Au  tau(  24) = (   0.8330542   0.0000000   0.1666109  )
        25           Au  tau(  25) = (   0.0000000   0.1666109   0.1666109  )
        26           Au  tau(  26) = (   0.3332217   0.1666109   0.1666109  )
        27           Au  tau(  27) = (   0.6664434   0.1666109   0.1666109  )
        28           Au  tau(  28) = (   0.1666109   0.3332217   0.1666109  )
        29           Au  tau(  29) = (   0.4998326   0.3332217   0.1666109  )
        30           Au  tau(  30) = (   0.8330542   0.3332217   0.1666109  )
        31           Au  tau(  31) = (   0.0000000   0.4998326   0.1666109  )
        32           Au  tau(  32) = (   0.3332217   0.4998326   0.1666109  )
        33           Au  tau(  33) = (   0.6664434   0.4998326   0.1666109  )
        34           Au  tau(  34) = (   0.1666109   0.6664434   0.1666109  )
        35           Au  tau(  35) = (   0.4998326   0.6664434   0.1666109  )
        36           Au  tau(  36) = (   0.8330542   0.6664434   0.1666109  )
        37           Au  tau(  37) = (   0.0000000   0.8330542   0.1666109  )
        38           Au  tau(  38) = (   0.3332217   0.8330542   0.1666109  )
        39           Au  tau(  39) = (   0.6664434   0.8330542   0.1666109  )
        40           Au  tau(  40) = (  -0.0000182  -0.0000182   0.3335478  )
        41           Au  tau(  41) = (   0.3332215  -0.0000181   0.3335473  )
        42           Au  tau(  42) = (   0.6664447  -0.0000183   0.3335481  )
        43           Au  tau(  43) = (  -0.0000181   0.3332215   0.3335473  )
        44           Au  tau(  44) = (   0.3332215   0.3332215   0.3335468  )
        45           Au  tau(  45) = (   0.6664445   0.3332215   0.3335477  )
        46           Au  tau(  46) = (  -0.0000183   0.6664447   0.3335481  )
        47           Au  tau(  47) = (   0.3332215   0.6664445   0.3335477  )
        48           Au  tau(  48) = (   0.6664446   0.6664446   0.3335486  )
        49           Au  tau(  49) = (   0.1666097   0.1666097   0.3335483  )
        50           Au  tau(  50) = (   0.4998320   0.1666098   0.3335477  )
        51           Au  tau(  51) = (   0.8330732   0.1666096   0.3335480  )
        52           Au  tau(  52) = (   0.1666098   0.4998320   0.3335477  )
        53           Au  tau(  53) = (   0.4998322   0.4998322   0.3335470  )
        54           Au  tau(  54) = (   0.8330731   0.4998322   0.3335474  )
        55           Au  tau(  55) = (   0.1666096   0.8330732   0.3335480  )
        56           Au  tau(  56) = (   0.4998322   0.8330731   0.3335474  )
        57           Au  tau(  57) = (   0.8330731   0.8330731   0.3335478  )
        58           Au  tau(  58) = (   0.1666104  -0.0000111   0.4993095  )
        59           Au  tau(  59) = (   0.4998323  -0.0000112   0.4993099  )
        60           Au  tau(  60) = (   0.8330660  -0.0000111   0.4993009  )
        61           Au  tau(  61) = (  -0.0000111   0.1666104   0.4993095  )
        62           Au  tau(  62) = (   0.3332213   0.1666106   0.4993185  )
        63           Au  tau(  63) = (   0.6664437   0.1666106   0.4993187  )
        64           Au  tau(  64) = (   0.1666106   0.3332213   0.4993185  )
        65           Au  tau(  65) = (   0.4998324   0.3332216   0.4993185  )
        66           Au  tau(  66) = (   0.8330658   0.3332215   0.4993102  )
        67           Au  tau(  67) = (  -0.0000112   0.4998323   0.4993099  )
        68           Au  tau(  68) = (   0.3332216   0.4998324   0.4993185  )
        69           Au  tau(  69) = (   0.6664437   0.4998325   0.4993187  )
        70           Au  tau(  70) = (   0.1666106   0.6664437   0.4993187  )
        71           Au  tau(  71) = (   0.4998325   0.6664437   0.4993187  )
        72           Au  tau(  72) = (   0.8330658   0.6664438   0.4993102  )
        73           Au  tau(  73) = (  -0.0000111   0.8330660   0.4993009  )
        74           Au  tau(  74) = (   0.3332215   0.8330658   0.4993102  )
        75           Au  tau(  75) = (   0.6664438   0.8330658   0.4993102  )

     number of k points=     6  Marzari-Vanderbilt smearing, width (Ry)=  0.0200
                       cart. coord. in units 2pi/alat
        k(    1) = (   0.2500000   0.2500000   0.0833333), wk =   0.3333333
        k(    2) = (   0.2500000   0.2500000  -0.2500000), wk =   0.3333333
        k(    3) = (  -0.2500000  -0.2500000   0.0833333), wk =   0.3333333
        k(    4) = (  -0.2500000   0.2500000  -0.0833333), wk =   0.3333333
        k(    5) = (   0.2500000  -0.2500000  -0.0833333), wk =   0.3333333
        k(    6) = (  -0.2500000   0.2500000   0.2500000), wk =   0.3333333

     Dense  grid:  3792731 G-vectors     FFT dimensions: ( 160, 160, 320)

     Smooth grid:  1341081 G-vectors     FFT dimensions: ( 120, 120, 225)

     Largest allocated arrays     est. size (Mb)     dimensions
        Kohn-Sham Wavefunctions        38.58 Mb     (    5267,  480)
        NL pseudopotentials            76.03 Mb     (    5267,  946)
        Each V/rho on FFT grid          3.91 Mb     (  256000)
        Each G-vector array             0.90 Mb     (  118520)
        G-vector shells                 0.08 Mb     (   10286)
     Largest temporary arrays     est. size (Mb)     dimensions
        Auxiliary wavefunctions       154.31 Mb     (    5267, 1920)
        Each subspace H/S matrix       56.25 Mb     (    1920, 1920)
        Each <psi_i|beta_j> matrix      6.93 Mb     (     946,  480)
        Arrays for rho mixing          31.25 Mb     (  256000,    8)

     Initial potential from superposition of free atoms
     Check: negative starting charge=   -1.945127

     starting charge  799.16392, renormalised to  800.00000

     negative rho (up, down):  1.947E+00 0.000E+00


     ************************************************************************
     *
     * You are using vdW-DF for exchange-correlation in this calculation.
     * Please cite the following three references that made this development
     * possible:
     *
     *   M. Dion, H. Rydberg, E. Schroder, D. C. Langreth, and
     *   B. I. Lundqvist, Phys. Rev. Lett. 92, 246401 (2004).
     *
     *   T. Thonhauser, V. R. Cooper, S. Li, A. Puzder, P. Hyldgaard, and
     *   D. C. Langreth, Phys. Rev. B 76, 125112 (2007).
     *
     *   G. Roman-Perez and J. M. Soler, Phys. Rev. Lett. 103, 096102 (2009).
     *
     *
     * If you are using vdW-DF2, please also cite:
     *
     *   K. Lee, E. D. Murray, L. Kong, B. I. Lundqvist, and
     *   D. C. Langreth, Phys. Rev. B 82, 081101(R) (2010).
     *
     *
     * If you are calculating the stress with vdW-DF, please also cite:
     *
     *   R. Sabatini, E. Kucukbenli, B. Kolb, T. Thonhauser, and
     *   S. de Gironcoli, J. Phys.: Condens. Matter 24, 424209 (2012).
     *
     ************************************************************************

     Carrying out vdW-DF run using the following parameters:

     Nqs =      20    Nr_points =    1024   r_max =   100.000
     q_mesh =
               0.00001000     0.04494208     0.09755937     0.15916263
               0.23128650     0.31572767     0.41458969     0.53033537
               0.66584808     0.82450364     1.01025438     1.22772762
               1.48234092     1.78043706     2.12944203     2.53805004
               3.01644009     3.57652955     4.23227104     5.00000000

     Gradients computed in reciprocal space

     ************************************************************************


     Starting wfc are  654 randomized atomic wfcs

     total cpu time spent up to now is      147.6 secs

     Self-consistent Calculation

     iteration #  1     ecut=    50.00 Ry     beta=0.70
     Davidson diagonalization with overlap
     ethr =  1.00E-02,  avg # of iterations =  3.0

     Threshold (ethr) on eigenvalues was too large:
     Diagonalizing with lowered threshold

     Davidson diagonalization with overlap
     ethr =  4.31E-04,  avg # of iterations =  2.0

     negative rho (up, down):  1.947E+00 0.000E+00

     total cpu time spent up to now is      649.1 secs

     total energy              =   -7422.98807515 Ry
     Harris-Foulkes estimate   =   -7426.08954673 Ry
     estimated scf accuracy    <       3.82681693 Ry

     iteration #  2     ecut=    50.00 Ry     beta=0.70
     Davidson diagonalization with overlap
     ethr =  4.78E-04,  avg # of iterations = 11.3

     negative rho (up, down):  1.941E+00 0.000E+00

     total cpu time spent up to now is     1680.4 secs

     total energy              =   -7414.42782497 Ry
     Harris-Foulkes estimate   =   -7432.85347440 Ry
     estimated scf accuracy    <      97.94588432 Ry

     iteration #  3     ecut=    50.00 Ry     beta=0.70
     Davidson diagonalization with overlap
     ethr =  4.78E-04,  avg # of iterations =  6.3

     negative rho (up, down):  1.952E+00 0.000E+00

     total cpu time spent up to now is     2298.3 secs

     total energy              =   -7424.40936305 Ry
     Harris-Foulkes estimate   =   -7425.86484502 Ry
     estimated scf accuracy    <       5.61623909 Ry

     iteration #  4     ecut=    50.00 Ry     beta=0.70
     Davidson diagonalization with overlap
     ethr =  4.78E-04,  avg # of iterations =  5.8

     negative rho (up, down):  1.955E+00 0.000E+00

     total cpu time spent up to now is     2619.7 secs

     total energy              =   -7424.74312626 Ry
     Harris-Foulkes estimate   =   -7425.76546226 Ry
     estimated scf accuracy    <       7.71309035 Ry

     iteration #  5     ecut=    50.00 Ry     beta=0.70
     Davidson diagonalization with overlap
     ethr =  4.78E-04,  avg # of iterations =  6.2

     negative rho (up, down):  1.964E+00 0.000E+00

     total cpu time spent up to now is     2936.6 secs

     total energy              =   -7425.22295338 Ry
     Harris-Foulkes estimate   =   -7425.41440480 Ry
     estimated scf accuracy    <       1.10292976 Ry

     iteration #  6     ecut=    50.00 Ry     beta=0.70
     Davidson diagonalization with overlap
     ethr =  1.38E-04,  avg # of iterations =  4.0

     negative rho (up, down):  1.967E+00 0.000E+00

     total cpu time spent up to now is     3208.0 secs

     total energy              =   -7425.27621183 Ry
     Harris-Foulkes estimate   =   -7425.31641851 Ry
     estimated scf accuracy    <       0.13367438 Ry

     iteration #  7     ecut=    50.00 Ry     beta=0.70
     Davidson diagonalization with overlap
     ethr =  1.67E-05,  avg # of iterations = 11.2

     negative rho (up, down):  1.969E+00 0.000E+00

     total cpu time spent up to now is     3638.9 secs

     total energy              =   -7425.27870183 Ry
     Harris-Foulkes estimate   =   -7425.30790428 Ry
     estimated scf accuracy    <       0.12520823 Ry

     iteration #  8     ecut=    50.00 Ry     beta=0.70
     Davidson diagonalization with overlap
     ethr =  1.57E-05,  avg # of iterations =  3.0

     negative rho (up, down):  1.971E+00 0.000E+00

     total cpu time spent up to now is     3905.1 secs

     total energy              =   -7425.28056891 Ry
     Harris-Foulkes estimate   =   -7425.30124825 Ry
     estimated scf accuracy    <       0.08820168 Ry

     iteration #  9     ecut=    50.00 Ry     beta=0.70
     Davidson diagonalization with overlap
     ethr =  1.10E-05,  avg # of iterations = 10.0

     negative rho (up, down):  1.972E+00 0.000E+00

     total cpu time spent up to now is     4280.7 secs

     total energy              =   -7425.28719478 Ry
     Harris-Foulkes estimate   =   -7425.29415341 Ry
     estimated scf accuracy    <       0.02379129 Ry

     iteration # 10     ecut=    50.00 Ry     beta=0.70
     Davidson diagonalization with overlap
     ethr =  2.97E-06,  avg # of iterations =  8.7

     negative rho (up, down):  1.972E+00 0.000E+00

     total cpu time spent up to now is     4652.1 secs

     total energy              =   -7425.29017750 Ry
     Harris-Foulkes estimate   =   -7425.29185754 Ry
     estimated scf accuracy    <       0.00473902 Ry

     iteration # 11     ecut=    50.00 Ry     beta=0.70
     Davidson diagonalization with overlap
     ethr =  5.92E-07,  avg # of iterations =  6.8

     negative rho (up, down):  1.973E+00 0.000E+00

     total cpu time spent up to now is     4938.5 secs

     total energy              =   -7425.29089061 Ry
     Harris-Foulkes estimate   =   -7425.29138992 Ry
     estimated scf accuracy    <       0.00134065 Ry

     iteration # 12     ecut=    50.00 Ry     beta=0.70
     Davidson diagonalization with overlap
     ethr =  1.68E-07,  avg # of iterations =  2.0

     negative rho (up, down):  1.973E+00 0.000E+00

     total cpu time spent up to now is     5114.7 secs

     total energy              =   -7425.29105753 Ry
     Harris-Foulkes estimate   =   -7425.29122704 Ry
     estimated scf accuracy    <       0.00052005 Ry

     iteration # 13     ecut=    50.00 Ry     beta=0.70
     Davidson diagonalization with overlap
     ethr =  6.50E-08,  avg # of iterations =  3.0

     negative rho (up, down):  1.974E+00 0.000E+00

     total cpu time spent up to now is     5320.9 secs

     total energy              =   -7425.29103391 Ry
     Harris-Foulkes estimate   =   -7425.29129481 Ry
     estimated scf accuracy    <       0.00135181 Ry

     iteration # 14     ecut=    50.00 Ry     beta=0.70
     Davidson diagonalization with overlap
     ethr =  6.50E-08,  avg # of iterations =  2.0

     negative rho (up, down):  1.974E+00 0.000E+00

     total cpu time spent up to now is     5498.1 secs

     total energy              =   -7425.29114922 Ry
     Harris-Foulkes estimate   =   -7425.29117587 Ry
     estimated scf accuracy    <       0.00009698 Ry

     iteration # 15     ecut=    50.00 Ry     beta=0.70
     Davidson diagonalization with overlap
     ethr =  1.21E-08,  avg # of iterations =  2.0

     negative rho (up, down):  1.974E+00 0.000E+00

     total cpu time spent up to now is     5681.7 secs

     total energy              =   -7425.29115111 Ry
     Harris-Foulkes estimate   =   -7425.29117422 Ry
     estimated scf accuracy    <       0.00008884 Ry

     iteration # 16     ecut=    50.00 Ry     beta=0.70
     Davidson diagonalization with overlap
     ethr =  1.11E-08,  avg # of iterations =  2.0

     negative rho (up, down):  1.974E+00 0.000E+00

     total cpu time spent up to now is     5851.0 secs

     total energy              =   -7425.29114190 Ry
     Harris-Foulkes estimate   =   -7425.29119197 Ry
     estimated scf accuracy    <       0.00041445 Ry

     iteration # 17     ecut=    50.00 Ry     beta=0.70
     Davidson diagonalization with overlap
     ethr =  1.11E-08,  avg # of iterations =  2.0

     negative rho (up, down):  1.974E+00 0.000E+00

     total cpu time spent up to now is     6016.4 secs

     total energy              =   -7425.29116406 Ry
     Harris-Foulkes estimate   =   -7425.29116710 Ry
     estimated scf accuracy    <       0.00001114 Ry

     iteration # 18     ecut=    50.00 Ry     beta=0.70
     Davidson diagonalization with overlap
     ethr =  1.39E-09,  avg # of iterations =  2.0

     negative rho (up, down):  1.974E+00 0.000E+00

     total cpu time spent up to now is     6187.1 secs

     total energy              =   -7425.29116512 Ry
     Harris-Foulkes estimate   =   -7425.29116647 Ry
     estimated scf accuracy    <       0.00000530 Ry

     iteration # 19     ecut=    50.00 Ry     beta=0.70
     Davidson diagonalization with overlap
     ethr =  6.63E-10,  avg # of iterations =  2.0

     negative rho (up, down):  1.974E+00 0.000E+00

     total cpu time spent up to now is     6358.4 secs

     total energy              =   -7425.29116530 Ry
     Harris-Foulkes estimate   =   -7425.29116611 Ry
     estimated scf accuracy    <       0.00000253 Ry

     iteration # 20     ecut=    50.00 Ry     beta=0.70
     Davidson diagonalization with overlap
     ethr =  3.16E-10,  avg # of iterations =  2.0

     negative rho (up, down):  1.974E+00 0.000E+00

     total cpu time spent up to now is     6535.2 secs

     total energy              =   -7425.29116545 Ry
     Harris-Foulkes estimate   =   -7425.29116576 Ry
     estimated scf accuracy    <       0.00000061 Ry

     iteration # 21     ecut=    50.00 Ry     beta=0.70
     Davidson diagonalization with overlap
     ethr =  7.65E-11,  avg # of iterations =  2.0

     negative rho (up, down):  1.974E+00 0.000E+00

     total cpu time spent up to now is     6709.4 secs

     total energy              =   -7425.29116546 Ry
     Harris-Foulkes estimate   =   -7425.29116556 Ry
     estimated scf accuracy    <       0.00000007 Ry

     iteration # 22     ecut=    50.00 Ry     beta=0.70
     Davidson diagonalization with overlap
     ethr =  8.54E-12,  avg # of iterations =  3.0

     negative rho (up, down):  1.974E+00 0.000E+00

     total cpu time spent up to now is     6964.0 secs

     total energy              =   -7425.29116541 Ry
     Harris-Foulkes estimate   =   -7425.29116550 Ry
     estimated scf accuracy    <       0.00000007 Ry

     iteration # 23     ecut=    50.00 Ry     beta=0.70
     Davidson diagonalization with overlap
     ethr =  8.54E-12,  avg # of iterations =  2.0

     negative rho (up, down):  1.974E+00 0.000E+00

     total cpu time spent up to now is     7141.4 secs

     total energy              =   -7425.29116541 Ry
     Harris-Foulkes estimate   =   -7425.29116543 Ry
     estimated scf accuracy    <       0.00000003 Ry

     iteration # 24     ecut=    50.00 Ry     beta=0.70
     Davidson diagonalization with overlap
     ethr =  4.26E-12,  avg # of iterations =  2.0

     negative rho (up, down):  1.974E+00 0.000E+00

     total cpu time spent up to now is     7319.5 secs

     total energy              =   -7425.29116539 Ry
     Harris-Foulkes estimate   =   -7425.29116542 Ry
     estimated scf accuracy    <       0.00000004 Ry

     iteration # 25     ecut=    50.00 Ry     beta=0.70
     Davidson diagonalization with overlap
     ethr =  4.26E-12,  avg # of iterations =  2.0

     negative rho (up, down):  1.974E+00 0.000E+00

     total cpu time spent up to now is     7493.5 secs

     total energy              =   -7425.29116537 Ry
     Harris-Foulkes estimate   =   -7425.29116540 Ry
     estimated scf accuracy    <       0.00000002 Ry

     iteration # 26     ecut=    50.00 Ry     beta=0.70
     Davidson diagonalization with overlap
     ethr =  2.30E-12,  avg # of iterations =  2.0

     negative rho (up, down):  1.974E+00 0.000E+00

     total cpu time spent up to now is     7665.7 secs

     End of self-consistent calculation

          k = 0.2500 0.2500 0.0833 (167653 PWs)   bands (ev):

   -20.0026  -7.8095  -6.7123  -6.1837  -6.1835  -5.7538  -5.3499  -5.2518
    -5.2516  -5.0555  -5.0548  -4.9483  -4.9386  -4.8589  -4.8388  -4.7628
    -4.6785  -4.6741  -4.6371  -4.6353  -4.4880  -4.4575  -4.4566  -4.4565
    -4.4510  -4.4009  -4.3934  -4.3819  -4.3815  -4.3730  -4.3440  -4.3328
    -4.3042  -4.2898  -4.2835  -4.2563  -4.2544  -4.2038  -4.1996  -4.1910
    -4.1858  -4.1733  -4.1726  -4.1631  -4.1208  -4.1132  -4.1130  -4.1056
    -4.1038  -4.0657  -4.0249  -4.0092  -4.0082  -4.0065  -3.9975  -3.9971
    -3.9916  -3.9910  -3.9889  -3.9273  -3.9087  -3.8766  -3.8763  -3.8620
    -3.8378  -3.8334  -3.8189  -3.8148  -3.8146  -3.8087  -3.8070  -3.7584
    -3.7583  -3.7455  -3.7429  -3.6407  -3.6378  -3.6345  -3.6292  -3.5962
    -3.5818  -3.5736  -3.5436  -3.5432  -3.5146  -3.5134  -3.4934  -3.4930
    -3.4795  -3.4768  -3.4240  -3.4228  -3.4039  -3.3903  -3.3786  -3.3770
    -3.3767  -3.3762  -3.3491  -3.3490  -3.3121  -3.3114  -3.2903  -3.2861
    -3.2571  -3.2521  -3.2386  -3.2106  -3.2091  -3.1732  -3.1730  -3.1370
    -3.1297  -3.1288  -3.1158  -3.1122  -3.1100  -3.1092  -3.0697  -3.0618
    -3.0213  -3.0209  -3.0123  -3.0032  -3.0024  -3.0017  -2.9769  -2.9767
    -2.9557  -2.9556  -2.9546  -2.9284  -2.9279  -2.9203  -2.9177  -2.9148
    -2.8809  -2.8776  -2.8426  -2.8420  -2.8412  -2.8379  -2.8363  -2.7579
    -2.7484  -2.7448  -2.7436  -2.7428  -2.7425  -2.7380  -2.7375  -2.7370
    -2.7369  -2.7270  -2.7192  -2.7033  -2.7004  -2.6995  -2.6965  -2.6851
    -2.6787  -2.6421  -2.6410  -2.6409  -2.6378  -2.6356  -2.6182  -2.6175
    -2.6094  -2.6069  -2.6064  -2.5481  -2.5465  -2.5419  -2.5412  -2.5383
    -2.5336  -2.5076  -2.4502  -2.4491  -2.4487  -2.4457  -2.4345  -2.4319
    -2.4314  -2.4171  -2.4166  -2.3836  -2.3796  -2.3737  -2.3717  -2.3711
    -2.3686  -2.3315  -2.3311  -2.3264  -2.3203  -2.3197  -2.3189  -2.2755
    -2.2702  -2.2528  -2.2142  -2.2015  -2.2001  -2.1828  -2.1774  -2.1738
    -2.1360  -2.1243  -2.1085  -2.1027  -2.0857  -2.0732  -2.0714  -2.0696
    -2.0492  -2.0481  -2.0399  -2.0239  -1.9837  -1.9805  -1.9695  -1.9676
    -1.9652  -1.9574  -1.9554  -1.9431  -1.9411  -1.9384  -1.9367  -1.9331
    -1.9320  -1.9289  -1.9197  -1.9184  -1.9014  -1.9001  -1.8934  -1.8911
    -1.8889  -1.8884  -1.8664  -1.8655  -1.8540  -1.8525  -1.8455  -1.8452
    -1.8097  -1.7762  -1.7751  -1.7400  -1.7233  -1.7225  -1.7127  -1.7082
    -1.6892  -1.6838  -1.6748  -1.6727  -1.6721  -1.6704  -1.6665  -1.6566
    -1.6359  -1.6352  -1.6352  -1.5907  -1.5880  -1.5502  -1.5476  -1.5030
    -1.5005  -1.4894  -1.4672  -1.4635  -1.4596  -1.4428  -1.4408  -1.4246
    -1.4243  -1.4204  -1.4197  -1.4189  -1.4171  -1.4126  -1.4079  -1.3944
    -1.3928  -1.3804  -1.3662  -1.3478  -1.3451  -1.3213  -1.3206  -1.3187
    -1.3164  -1.3144  -1.3075  -1.2915  -1.2851  -1.2751  -1.2684  -1.2564
    -1.2515  -1.2383  -1.2369  -1.2073  -1.2061  -1.1988  -1.1951  -1.1622
    -1.1612  -1.1546  -1.1532  -1.1466  -1.1425  -1.1239  -1.1238  -1.1122
    -1.1054  -1.1045  -1.0926  -1.0924  -1.0912  -1.0853  -1.0771  -1.0657
    -1.0631  -1.0574  -1.0569  -1.0463  -1.0412  -1.0359  -1.0344  -0.9946
    -0.9916  -0.9901  -0.9855  -0.9851  -0.9833  -0.9460  -0.9295  -0.9286
    -0.9275  -0.9269  -0.9225  -0.9182  -0.9149  -0.9033  -0.9017  -0.8674
    -0.8654  -0.8591  -0.8585  -0.8365  -0.8360  -0.8264  -0.7970  -0.7892
    -0.7621  -0.7617  -0.7336  -0.7331  -0.7302  -0.7295  -0.7286  -0.7238
    -0.7193  -0.7191  -0.7149  -0.7139  -0.6829  -0.6820  -0.6660  -0.6626
    -0.6594  -0.6591  -0.6546  -0.6458  -0.6382  -0.3625  -0.3528  -0.2985
    -0.2863  -0.2562  -0.0936  -0.0313  -0.0296   0.0060   0.2878   0.2920
     0.6146   0.6253   0.7169   0.7189   0.7567   0.7629   0.9032   0.9073
     1.0260   1.0285   1.1155   1.7135   1.7314   1.7333   1.7716   1.7759
     1.8123   1.8308   1.9000   1.9060   2.1072   2.1106   2.3405   2.4180
     2.4311   2.4423   2.8108   2.8252   2.8942   2.8943   2.9012   2.9045
     3.0526   3.0542   3.0734   3.1931   3.1987   3.4261   3.4342   3.5634
     3.5857   3.5921   3.8576   3.8614   3.9701   3.9812   3.9946   3.9968
     4.0412   4.1788   4.1840   4.4139   4.4177   4.4914   4.5022   4.6088
     4.6310   4.6412   4.6546   4.6766   4.8741   5.3855   5.4166   5.4592
     5.5524   5.5640   5.6046   5.6570   5.7377   5.7424   5.7497   5.8482
     5.8560   5.9099   5.9116   5.9470   6.0085   6.0375   6.0935   6.1457
     6.1880   6.2161   6.2265   6.2305   6.2469   6.2495   6.2600   6.2619

          k = 0.2500 0.2500-0.2500 (167588 PWs)   bands (ev):

   -20.0026  -7.8095  -6.7123  -6.1837  -6.1835  -5.7538  -5.3499  -5.2518
    -5.2516  -5.0555  -5.0548  -4.9483  -4.9386  -4.8589  -4.8388  -4.7628
    -4.6785  -4.6741  -4.6371  -4.6353  -4.4880  -4.4575  -4.4566  -4.4565
    -4.4510  -4.4009  -4.3934  -4.3819  -4.3815  -4.3730  -4.3440  -4.3328
    -4.3042  -4.2898  -4.2835  -4.2563  -4.2544  -4.2038  -4.1996  -4.1910
    -4.1858  -4.1733  -4.1726  -4.1631  -4.1208  -4.1132  -4.1130  -4.1056
    -4.1038  -4.0657  -4.0249  -4.0092  -4.0082  -4.0065  -3.9975  -3.9971
    -3.9917  -3.9910  -3.9889  -3.9273  -3.9087  -3.8766  -3.8763  -3.8620
    -3.8378  -3.8334  -3.8189  -3.8148  -3.8146  -3.8087  -3.8071  -3.7584
    -3.7583  -3.7455  -3.7429  -3.6407  -3.6378  -3.6345  -3.6292  -3.5962
    -3.5819  -3.5736  -3.5436  -3.5432  -3.5146  -3.5134  -3.4934  -3.4930
    -3.4795  -3.4768  -3.4240  -3.4228  -3.4039  -3.3903  -3.3786  -3.3770
    -3.3767  -3.3762  -3.3491  -3.3490  -3.3120  -3.3114  -3.2903  -3.2861
    -3.2571  -3.2521  -3.2386  -3.2106  -3.2091  -3.1732  -3.1730  -3.1370
    -3.1297  -3.1288  -3.1158  -3.1122  -3.1100  -3.1092  -3.0697  -3.0618
    -3.0213  -3.0209  -3.0123  -3.0032  -3.0024  -3.0017  -2.9769  -2.9767
    -2.9557  -2.9556  -2.9546  -2.9284  -2.9279  -2.9203  -2.9177  -2.9148
    -2.8809  -2.8776  -2.8426  -2.8420  -2.8412  -2.8379  -2.8363  -2.7579
    -2.7484  -2.7448  -2.7436  -2.7428  -2.7425  -2.7380  -2.7375  -2.7370
    -2.7369  -2.7270  -2.7192  -2.7033  -2.7004  -2.6995  -2.6965  -2.6851
    -2.6787  -2.6421  -2.6410  -2.6409  -2.6378  -2.6356  -2.6182  -2.6175
    -2.6094  -2.6069  -2.6064  -2.5481  -2.5465  -2.5419  -2.5412  -2.5383
    -2.5336  -2.5076  -2.4502  -2.4491  -2.4487  -2.4457  -2.4345  -2.4319
    -2.4314  -2.4171  -2.4166  -2.3836  -2.3796  -2.3737  -2.3717  -2.3711
    -2.3686  -2.3315  -2.3311  -2.3264  -2.3203  -2.3197  -2.3189  -2.2755
    -2.2702  -2.2528  -2.2142  -2.2015  -2.2001  -2.1828  -2.1774  -2.1738
    -2.1360  -2.1243  -2.1085  -2.1027  -2.0857  -2.0732  -2.0714  -2.0696
    -2.0492  -2.0481  -2.0399  -2.0239  -1.9837  -1.9805  -1.9695  -1.9676
    -1.9652  -1.9574  -1.9554  -1.9431  -1.9411  -1.9384  -1.9367  -1.9331
    -1.9320  -1.9289  -1.9197  -1.9184  -1.9014  -1.9001  -1.8934  -1.8911
    -1.8889  -1.8884  -1.8664  -1.8655  -1.8540  -1.8525  -1.8455  -1.8452
    -1.8097  -1.7762  -1.7751  -1.7400  -1.7233  -1.7225  -1.7127  -1.7082
    -1.6892  -1.6838  -1.6748  -1.6727  -1.6721  -1.6703  -1.6665  -1.6566
    -1.6359  -1.6352  -1.6352  -1.5907  -1.5880  -1.5502  -1.5476  -1.5030
    -1.5005  -1.4894  -1.4672  -1.4635  -1.4596  -1.4428  -1.4408  -1.4246
    -1.4243  -1.4204  -1.4197  -1.4189  -1.4171  -1.4125  -1.4079  -1.3944
    -1.3928  -1.3804  -1.3662  -1.3478  -1.3451  -1.3213  -1.3206  -1.3187
    -1.3164  -1.3144  -1.3075  -1.2915  -1.2851  -1.2751  -1.2684  -1.2564
    -1.2515  -1.2383  -1.2369  -1.2073  -1.2061  -1.1988  -1.1951  -1.1622
    -1.1612  -1.1546  -1.1532  -1.1466  -1.1425  -1.1239  -1.1238  -1.1122
    -1.1054  -1.1045  -1.0926  -1.0923  -1.0912  -1.0853  -1.0771  -1.0657
    -1.0631  -1.0574  -1.0569  -1.0463  -1.0412  -1.0359  -1.0344  -0.9946
    -0.9916  -0.9901  -0.9855  -0.9851  -0.9833  -0.9460  -0.9295  -0.9286
    -0.9275  -0.9269  -0.9225  -0.9182  -0.9149  -0.9033  -0.9017  -0.8674
    -0.8654  -0.8591  -0.8585  -0.8365  -0.8360  -0.8264  -0.7970  -0.7892
    -0.7621  -0.7617  -0.7336  -0.7331  -0.7302  -0.7295  -0.7286  -0.7238
    -0.7193  -0.7191  -0.7149  -0.7139  -0.6829  -0.6821  -0.6660  -0.6626
    -0.6594  -0.6591  -0.6545  -0.6458  -0.6382  -0.3625  -0.3528  -0.2985
    -0.2863  -0.2562  -0.0936  -0.0313  -0.0296   0.0060   0.2878   0.2920
     0.6146   0.6253   0.7169   0.7189   0.7567   0.7629   0.9032   0.9073
     1.0260   1.0285   1.1155   1.7135   1.7314   1.7333   1.7716   1.7759
     1.8123   1.8308   1.9000   1.9060   2.1072   2.1106   2.3405   2.4180
     2.4311   2.4423   2.8108   2.8252   2.8942   2.8943   2.9012   2.9045
     3.0526   3.0542   3.0734   3.1931   3.1987   3.4262   3.4342   3.5634
     3.5857   3.5921   3.8576   3.8614   3.9702   3.9812   3.9946   3.9968
     4.0413   4.1788   4.1840   4.4139   4.4177   4.4913   4.5022   4.6086
     4.6310   4.6412   4.6545   4.6764   4.8722   5.3845   5.4051   5.4430
     5.5522   5.5641   5.6143   5.7213   5.7375   5.7436   5.7492   5.8477
     5.8558   5.9103   5.9118   5.9509   5.9864   6.0632   6.0769   6.1802
     6.1979   6.2218   6.2295   6.2314   6.2470   6.2553   6.2616   6.2627

          k =-0.2500-0.2500 0.0833 (167653 PWs)   bands (ev):

   -20.0026  -7.8095  -6.7123  -6.1837  -6.1835  -5.7538  -5.3499  -5.2518
    -5.2516  -5.0555  -5.0548  -4.9483  -4.9386  -4.8589  -4.8388  -4.7628
    -4.6785  -4.6741  -4.6371  -4.6353  -4.4880  -4.4575  -4.4566  -4.4565
    -4.4510  -4.4009  -4.3934  -4.3819  -4.3815  -4.3730  -4.3440  -4.3328
    -4.3042  -4.2898  -4.2835  -4.2563  -4.2544  -4.2038  -4.1996  -4.1910
    -4.1858  -4.1733  -4.1726  -4.1631  -4.1208  -4.1132  -4.1130  -4.1056
    -4.1038  -4.0657  -4.0249  -4.0092  -4.0082  -4.0065  -3.9975  -3.9971
    -3.9916  -3.9910  -3.9889  -3.9273  -3.9087  -3.8766  -3.8763  -3.8620
    -3.8378  -3.8334  -3.8189  -3.8148  -3.8146  -3.8087  -3.8070  -3.7584
    -3.7583  -3.7455  -3.7429  -3.6407  -3.6378  -3.6345  -3.6292  -3.5962
    -3.5818  -3.5736  -3.5436  -3.5432  -3.5146  -3.5134  -3.4934  -3.4930
    -3.4795  -3.4768  -3.4240  -3.4228  -3.4039  -3.3903  -3.3786  -3.3770
    -3.3767  -3.3762  -3.3491  -3.3490  -3.3121  -3.3114  -3.2903  -3.2861
    -3.2571  -3.2521  -3.2386  -3.2106  -3.2091  -3.1732  -3.1730  -3.1370
    -3.1297  -3.1288  -3.1158  -3.1122  -3.1100  -3.1092  -3.0697  -3.0618
    -3.0213  -3.0209  -3.0123  -3.0032  -3.0024  -3.0017  -2.9769  -2.9767
    -2.9557  -2.9556  -2.9546  -2.9284  -2.9279  -2.9203  -2.9177  -2.9148
    -2.8809  -2.8776  -2.8426  -2.8420  -2.8412  -2.8379  -2.8363  -2.7579
    -2.7484  -2.7448  -2.7436  -2.7428  -2.7425  -2.7380  -2.7375  -2.7370
    -2.7369  -2.7270  -2.7192  -2.7033  -2.7004  -2.6995  -2.6965  -2.6851
    -2.6787  -2.6421  -2.6410  -2.6409  -2.6378  -2.6356  -2.6182  -2.6175
    -2.6094  -2.6069  -2.6064  -2.5481  -2.5465  -2.5419  -2.5412  -2.5383
    -2.5336  -2.5076  -2.4502  -2.4491  -2.4487  -2.4457  -2.4345  -2.4319
    -2.4314  -2.4171  -2.4166  -2.3836  -2.3796  -2.3737  -2.3717  -2.3711
    -2.3686  -2.3315  -2.3311  -2.3264  -2.3203  -2.3197  -2.3189  -2.2755
    -2.2702  -2.2528  -2.2142  -2.2015  -2.2001  -2.1828  -2.1774  -2.1738
    -2.1360  -2.1243  -2.1085  -2.1027  -2.0857  -2.0732  -2.0714  -2.0696
    -2.0492  -2.0481  -2.0399  -2.0239  -1.9837  -1.9805  -1.9695  -1.9676
    -1.9652  -1.9574  -1.9554  -1.9431  -1.9411  -1.9384  -1.9367  -1.9331
    -1.9320  -1.9289  -1.9197  -1.9184  -1.9014  -1.9001  -1.8934  -1.8911
    -1.8889  -1.8884  -1.8664  -1.8655  -1.8540  -1.8525  -1.8455  -1.8452
    -1.8097  -1.7762  -1.7751  -1.7400  -1.7233  -1.7225  -1.7127  -1.7082
    -1.6892  -1.6838  -1.6748  -1.6727  -1.6721  -1.6704  -1.6665  -1.6566
    -1.6359  -1.6352  -1.6352  -1.5907  -1.5880  -1.5502  -1.5476  -1.5030
    -1.5005  -1.4894  -1.4672  -1.4635  -1.4596  -1.4428  -1.4408  -1.4246
    -1.4243  -1.4204  -1.4197  -1.4189  -1.4171  -1.4126  -1.4079  -1.3944
    -1.3928  -1.3804  -1.3662  -1.3478  -1.3451  -1.3213  -1.3206  -1.3187
    -1.3164  -1.3144  -1.3075  -1.2915  -1.2851  -1.2751  -1.2684  -1.2564
    -1.2515  -1.2383  -1.2369  -1.2073  -1.2061  -1.1988  -1.1951  -1.1622
    -1.1612  -1.1546  -1.1532  -1.1466  -1.1425  -1.1239  -1.1238  -1.1122
    -1.1054  -1.1045  -1.0926  -1.0924  -1.0912  -1.0853  -1.0771  -1.0657
    -1.0631  -1.0574  -1.0569  -1.0463  -1.0412  -1.0359  -1.0344  -0.9946
    -0.9916  -0.9901  -0.9855  -0.9851  -0.9833  -0.9460  -0.9295  -0.9286
    -0.9275  -0.9269  -0.9225  -0.9182  -0.9149  -0.9033  -0.9017  -0.8674
    -0.8654  -0.8591  -0.8585  -0.8365  -0.8360  -0.8264  -0.7970  -0.7892
    -0.7621  -0.7617  -0.7336  -0.7331  -0.7302  -0.7295  -0.7286  -0.7238
    -0.7193  -0.7191  -0.7149  -0.7139  -0.6829  -0.6820  -0.6660  -0.6626
    -0.6594  -0.6591  -0.6546  -0.6458  -0.6382  -0.3625  -0.3528  -0.2985
    -0.2863  -0.2562  -0.0936  -0.0313  -0.0296   0.0060   0.2878   0.2920
     0.6146   0.6253   0.7169   0.7189   0.7567   0.7629   0.9032   0.9073
     1.0260   1.0285   1.1155   1.7135   1.7314   1.7333   1.7716   1.7759
     1.8123   1.8308   1.9000   1.9060   2.1072   2.1106   2.3405   2.4180
     2.4311   2.4423   2.8108   2.8252   2.8942   2.8943   2.9012   2.9045
     3.0526   3.0542   3.0734   3.1931   3.1987   3.4261   3.4342   3.5634
     3.5857   3.5921   3.8576   3.8614   3.9701   3.9812   3.9946   3.9968
     4.0412   4.1788   4.1840   4.4139   4.4177   4.4914   4.5022   4.6088
     4.6310   4.6412   4.6546   4.6766   4.8741   5.3855   5.4166   5.4590
     5.5524   5.5640   5.6052   5.6567   5.7376   5.7424   5.7496   5.8481
     5.8559   5.9099   5.9116   5.9470   6.0088   6.0367   6.0930   6.1462
     6.1880   6.2164   6.2268   6.2305   6.2468   6.2495   6.2600   6.2619

          k =-0.2500 0.2500-0.0833 (167653 PWs)   bands (ev):

   -20.0026  -7.8095  -6.7123  -6.1836  -6.1835  -5.7538  -5.3499  -5.2518
    -5.2516  -5.0555  -5.0547  -4.9483  -4.9386  -4.8589  -4.8389  -4.7628
    -4.6785  -4.6741  -4.6372  -4.6352  -4.4880  -4.4575  -4.4566  -4.4565
    -4.4510  -4.4009  -4.3933  -4.3819  -4.3815  -4.3731  -4.3441  -4.3328
    -4.3042  -4.2897  -4.2836  -4.2563  -4.2544  -4.2038  -4.1996  -4.1910
    -4.1858  -4.1734  -4.1725  -4.1630  -4.1208  -4.1132  -4.1130  -4.1056
    -4.1038  -4.0658  -4.0250  -4.0092  -4.0082  -4.0063  -3.9978  -3.9968
    -3.9917  -3.9910  -3.9889  -3.9274  -3.9087  -3.8767  -3.8763  -3.8620
    -3.8378  -3.8335  -3.8187  -3.8151  -3.8143  -3.8086  -3.8071  -3.7584
    -3.7582  -3.7456  -3.7428  -3.6407  -3.6378  -3.6345  -3.6293  -3.5962
    -3.5818  -3.5736  -3.5437  -3.5430  -3.5146  -3.5134  -3.4935  -3.4929
    -3.4795  -3.4767  -3.4240  -3.4228  -3.4039  -3.3903  -3.3787  -3.3770
    -3.3767  -3.3762  -3.3492  -3.3489  -3.3120  -3.3114  -3.2904  -3.2861
    -3.2572  -3.2520  -3.2386  -3.2106  -3.2092  -3.1732  -3.1730  -3.1371
    -3.1297  -3.1288  -3.1158  -3.1122  -3.1100  -3.1093  -3.0697  -3.0618
    -3.0213  -3.0209  -3.0123  -3.0032  -3.0023  -3.0018  -2.9770  -2.9766
    -2.9559  -2.9553  -2.9547  -2.9282  -2.9279  -2.9204  -2.9176  -2.9148
    -2.8809  -2.8776  -2.8429  -2.8421  -2.8412  -2.8379  -2.8363  -2.7579
    -2.7484  -2.7446  -2.7437  -2.7429  -2.7424  -2.7379  -2.7376  -2.7370
    -2.7369  -2.7270  -2.7192  -2.7033  -2.7004  -2.6995  -2.6965  -2.6849
    -2.6787  -2.6421  -2.6410  -2.6409  -2.6377  -2.6358  -2.6182  -2.6175
    -2.6094  -2.6069  -2.6063  -2.5481  -2.5465  -2.5418  -2.5411  -2.5382
    -2.5336  -2.5077  -2.4497  -2.4492  -2.4484  -2.4457  -2.4344  -2.4318
    -2.4306  -2.4171  -2.4166  -2.3833  -2.3796  -2.3740  -2.3718  -2.3710
    -2.3692  -2.3316  -2.3311  -2.3265  -2.3202  -2.3197  -2.3189  -2.2756
    -2.2735  -2.2530  -2.2123  -2.2015  -2.1994  -2.1831  -2.1772  -2.1742
    -2.1337  -2.1244  -2.1072  -2.1026  -2.0854  -2.0732  -2.0716  -2.0700
    -2.0494  -2.0483  -2.0401  -2.0234  -1.9837  -1.9802  -1.9696  -1.9677
    -1.9657  -1.9575  -1.9553  -1.9430  -1.9413  -1.9384  -1.9368  -1.9333
    -1.9320  -1.9281  -1.9196  -1.9184  -1.9013  -1.9001  -1.8947  -1.8912
    -1.8892  -1.8888  -1.8663  -1.8655  -1.8545  -1.8525  -1.8467  -1.8454
    -1.8097  -1.7763  -1.7754  -1.7400  -1.7233  -1.7225  -1.7130  -1.7078
    -1.6895  -1.6830  -1.6750  -1.6726  -1.6721  -1.6703  -1.6650  -1.6561
    -1.6359  -1.6352  -1.6351  -1.5907  -1.5886  -1.5502  -1.5474  -1.5031
    -1.5004  -1.4893  -1.4673  -1.4636  -1.4596  -1.4434  -1.4407  -1.4247
    -1.4243  -1.4205  -1.4198  -1.4189  -1.4171  -1.4127  -1.4091  -1.3944
    -1.3928  -1.3800  -1.3662  -1.3478  -1.3444  -1.3213  -1.3204  -1.3187
    -1.3171  -1.3144  -1.3071  -1.2916  -1.2842  -1.2756  -1.2678  -1.2565
    -1.2516  -1.2384  -1.2365  -1.2073  -1.2061  -1.1991  -1.1950  -1.1627
    -1.1612  -1.1546  -1.1536  -1.1467  -1.1418  -1.1239  -1.1237  -1.1122
    -1.1055  -1.1044  -1.0926  -1.0924  -1.0914  -1.0843  -1.0771  -1.0660
    -1.0628  -1.0574  -1.0569  -1.0459  -1.0415  -1.0354  -1.0342  -0.9944
    -0.9919  -0.9901  -0.9855  -0.9851  -0.9838  -0.9460  -0.9297  -0.9286
    -0.9275  -0.9267  -0.9229  -0.9182  -0.9141  -0.9038  -0.9023  -0.8674
    -0.8649  -0.8591  -0.8585  -0.8365  -0.8360  -0.8264  -0.7970  -0.7892
    -0.7622  -0.7616  -0.7336  -0.7332  -0.7303  -0.7295  -0.7286  -0.7239
    -0.7193  -0.7191  -0.7149  -0.7141  -0.6829  -0.6820  -0.6663  -0.6624
    -0.6594  -0.6589  -0.6556  -0.6450  -0.6382  -0.3625  -0.3528  -0.2995
    -0.2857  -0.2562  -0.0937  -0.0314  -0.0296   0.0066   0.2872   0.2926
     0.6140   0.6262   0.7167   0.7192   0.7565   0.7633   0.9016   0.9076
     1.0260   1.0285   1.1158   1.7139   1.7313   1.7336   1.7713   1.7759
     1.8109   1.8321   1.8993   1.9067   2.1068   2.1110   2.3409   2.4175
     2.4324   2.4423   2.8100   2.8262   2.8939   2.8946   2.9011   2.9047
     3.0524   3.0544   3.0732   3.1937   3.1973   3.4264   3.4320   3.5636
     3.5854   3.5926   3.8570   3.8615   3.9700   3.9845   3.9950   3.9981
     4.0384   4.1785   4.1838   4.4136   4.4178   4.4943   4.5014   4.6055
     4.6314   4.6398   4.6531   4.6753   4.8813   5.3801   5.4196   5.4702
     5.5520   5.5630   5.5993   5.6476   5.7371   5.7428   5.7502   5.8474
     5.8573   5.9096   5.9112   5.9462   6.0142   6.0317   6.1005   6.1424
     6.1878   6.2171   6.2291   6.2315   6.2453   6.2476   6.2596   6.2619

          k = 0.2500-0.2500-0.0833 (167653 PWs)   bands (ev):

   -20.0026  -7.8095  -6.7123  -6.1836  -6.1835  -5.7538  -5.3499  -5.2518
    -5.2516  -5.0555  -5.0547  -4.9483  -4.9386  -4.8589  -4.8389  -4.7628
    -4.6785  -4.6741  -4.6372  -4.6352  -4.4880  -4.4575  -4.4566  -4.4565
    -4.4510  -4.4009  -4.3933  -4.3819  -4.3815  -4.3731  -4.3441  -4.3328
    -4.3042  -4.2897  -4.2836  -4.2563  -4.2544  -4.2038  -4.1996  -4.1910
    -4.1858  -4.1734  -4.1725  -4.1630  -4.1208  -4.1132  -4.1130  -4.1056
    -4.1038  -4.0658  -4.0250  -4.0092  -4.0082  -4.0063  -3.9978  -3.9968
    -3.9917  -3.9910  -3.9889  -3.9274  -3.9087  -3.8767  -3.8763  -3.8620
    -3.8378  -3.8335  -3.8187  -3.8151  -3.8143  -3.8086  -3.8071  -3.7584
    -3.7582  -3.7456  -3.7428  -3.6407  -3.6378  -3.6345  -3.6293  -3.5962
    -3.5818  -3.5736  -3.5437  -3.5430  -3.5146  -3.5134  -3.4935  -3.4929
    -3.4795  -3.4767  -3.4240  -3.4228  -3.4039  -3.3903  -3.3787  -3.3770
    -3.3767  -3.3762  -3.3492  -3.3489  -3.3120  -3.3114  -3.2904  -3.2861
    -3.2572  -3.2520  -3.2386  -3.2106  -3.2092  -3.1732  -3.1730  -3.1371
    -3.1297  -3.1288  -3.1158  -3.1122  -3.1100  -3.1093  -3.0697  -3.0618
    -3.0213  -3.0209  -3.0123  -3.0032  -3.0023  -3.0018  -2.9770  -2.9766
    -2.9559  -2.9553  -2.9547  -2.9282  -2.9279  -2.9204  -2.9176  -2.9148
    -2.8809  -2.8776  -2.8429  -2.8421  -2.8412  -2.8379  -2.8363  -2.7579
    -2.7484  -2.7446  -2.7437  -2.7429  -2.7424  -2.7379  -2.7376  -2.7370
    -2.7369  -2.7270  -2.7192  -2.7033  -2.7004  -2.6995  -2.6965  -2.6849
    -2.6787  -2.6421  -2.6410  -2.6409  -2.6377  -2.6358  -2.6182  -2.6175
    -2.6094  -2.6069  -2.6063  -2.5481  -2.5465  -2.5418  -2.5411  -2.5382
    -2.5336  -2.5077  -2.4497  -2.4492  -2.4484  -2.4457  -2.4344  -2.4318
    -2.4306  -2.4171  -2.4166  -2.3833  -2.3796  -2.3740  -2.3718  -2.3710
    -2.3692  -2.3316  -2.3311  -2.3265  -2.3202  -2.3197  -2.3189  -2.2756
    -2.2735  -2.2530  -2.2123  -2.2015  -2.1994  -2.1831  -2.1772  -2.1742
    -2.1337  -2.1244  -2.1072  -2.1026  -2.0854  -2.0732  -2.0716  -2.0700
    -2.0494  -2.0483  -2.0401  -2.0234  -1.9837  -1.9802  -1.9696  -1.9677
    -1.9657  -1.9575  -1.9553  -1.9430  -1.9413  -1.9384  -1.9368  -1.9333
    -1.9320  -1.9281  -1.9196  -1.9184  -1.9013  -1.9001  -1.8947  -1.8912
    -1.8892  -1.8888  -1.8663  -1.8655  -1.8545  -1.8525  -1.8467  -1.8454
    -1.8097  -1.7763  -1.7754  -1.7400  -1.7233  -1.7225  -1.7130  -1.7078
    -1.6895  -1.6830  -1.6750  -1.6726  -1.6721  -1.6703  -1.6650  -1.6561
    -1.6359  -1.6352  -1.6351  -1.5907  -1.5886  -1.5502  -1.5474  -1.5031
    -1.5004  -1.4893  -1.4673  -1.4636  -1.4596  -1.4434  -1.4407  -1.4247
    -1.4243  -1.4205  -1.4198  -1.4189  -1.4171  -1.4127  -1.4091  -1.3944
    -1.3928  -1.3800  -1.3662  -1.3478  -1.3444  -1.3213  -1.3204  -1.3187
    -1.3171  -1.3144  -1.3071  -1.2916  -1.2842  -1.2756  -1.2678  -1.2565
    -1.2516  -1.2384  -1.2365  -1.2073  -1.2061  -1.1991  -1.1950  -1.1627
    -1.1612  -1.1546  -1.1536  -1.1467  -1.1418  -1.1239  -1.1237  -1.1122
    -1.1055  -1.1044  -1.0926  -1.0924  -1.0914  -1.0843  -1.0771  -1.0660
    -1.0628  -1.0574  -1.0569  -1.0459  -1.0415  -1.0354  -1.0342  -0.9944
    -0.9919  -0.9901  -0.9855  -0.9851  -0.9838  -0.9460  -0.9297  -0.9286
    -0.9275  -0.9267  -0.9229  -0.9182  -0.9141  -0.9038  -0.9023  -0.8674
    -0.8649  -0.8591  -0.8585  -0.8365  -0.8360  -0.8264  -0.7970  -0.7892
    -0.7622  -0.7616  -0.7336  -0.7332  -0.7303  -0.7295  -0.7286  -0.7239
    -0.7193  -0.7191  -0.7149  -0.7141  -0.6829  -0.6820  -0.6663  -0.6624
    -0.6594  -0.6589  -0.6556  -0.6450  -0.6382  -0.3625  -0.3528  -0.2995
    -0.2857  -0.2562  -0.0937  -0.0314  -0.0296   0.0066   0.2872   0.2926
     0.6140   0.6262   0.7167   0.7192   0.7565   0.7633   0.9016   0.9076
     1.0260   1.0285   1.1158   1.7139   1.7313   1.7336   1.7713   1.7759
     1.8109   1.8321   1.8993   1.9067   2.1068   2.1110   2.3409   2.4175
     2.4324   2.4423   2.8100   2.8262   2.8939   2.8946   2.9011   2.9047
     3.0524   3.0544   3.0732   3.1937   3.1973   3.4264   3.4320   3.5636
     3.5854   3.5926   3.8570   3.8615   3.9700   3.9845   3.9950   3.9981
     4.0384   4.1785   4.1838   4.4136   4.4178   4.4943   4.5014   4.6055
     4.6314   4.6398   4.6531   4.6753   4.8813   5.3800   5.4195   5.4704
     5.5520   5.5629   5.5987   5.6480   5.7371   5.7428   5.7502   5.8475
     5.8573   5.9096   5.9112   5.9462   6.0141   6.0323   6.1011   6.1419
     6.1880   6.2168   6.2288   6.2316   6.2454   6.2476   6.2596   6.2619

          k =-0.2500 0.2500 0.2500 (167588 PWs)   bands (ev):

   -20.0026  -7.8095  -6.7123  -6.1836  -6.1835  -5.7538  -5.3499  -5.2518
    -5.2516  -5.0555  -5.0547  -4.9483  -4.9386  -4.8589  -4.8389  -4.7628
    -4.6785  -4.6741  -4.6372  -4.6352  -4.4880  -4.4575  -4.4566  -4.4565
    -4.4510  -4.4009  -4.3933  -4.3819  -4.3815  -4.3731  -4.3441  -4.3328
    -4.3042  -4.2897  -4.2836  -4.2563  -4.2544  -4.2038  -4.1996  -4.1910
    -4.1858  -4.1734  -4.1725  -4.1630  -4.1208  -4.1132  -4.1130  -4.1056
    -4.1038  -4.0659  -4.0250  -4.0092  -4.0082  -4.0063  -3.9978  -3.9968
    -3.9917  -3.9910  -3.9889  -3.9274  -3.9086  -3.8767  -3.8763  -3.8621
    -3.8378  -3.8334  -3.8187  -3.8151  -3.8143  -3.8086  -3.8071  -3.7584
    -3.7582  -3.7456  -3.7428  -3.6407  -3.6378  -3.6345  -3.6293  -3.5962
    -3.5818  -3.5736  -3.5437  -3.5430  -3.5146  -3.5134  -3.4935  -3.4929
    -3.4795  -3.4767  -3.4240  -3.4228  -3.4039  -3.3903  -3.3787  -3.3770
    -3.3767  -3.3762  -3.3492  -3.3489  -3.3120  -3.3113  -3.2904  -3.2861
    -3.2572  -3.2520  -3.2386  -3.2106  -3.2092  -3.1732  -3.1730  -3.1371
    -3.1297  -3.1288  -3.1158  -3.1122  -3.1100  -3.1093  -3.0697  -3.0618
    -3.0213  -3.0209  -3.0123  -3.0032  -3.0023  -3.0018  -2.9770  -2.9766
    -2.9559  -2.9553  -2.9547  -2.9282  -2.9279  -2.9204  -2.9176  -2.9148
    -2.8809  -2.8776  -2.8429  -2.8421  -2.8412  -2.8379  -2.8363  -2.7579
    -2.7484  -2.7446  -2.7437  -2.7429  -2.7424  -2.7379  -2.7376  -2.7370
    -2.7369  -2.7270  -2.7192  -2.7033  -2.7004  -2.6995  -2.6965  -2.6849
    -2.6787  -2.6421  -2.6410  -2.6409  -2.6377  -2.6358  -2.6181  -2.6175
    -2.6094  -2.6069  -2.6064  -2.5481  -2.5465  -2.5418  -2.5411  -2.5382
    -2.5336  -2.5077  -2.4497  -2.4492  -2.4484  -2.4457  -2.4344  -2.4317
    -2.4306  -2.4171  -2.4166  -2.3833  -2.3796  -2.3740  -2.3718  -2.3710
    -2.3692  -2.3316  -2.3311  -2.3265  -2.3202  -2.3197  -2.3189  -2.2756
    -2.2735  -2.2530  -2.2123  -2.2015  -2.1994  -2.1831  -2.1772  -2.1742
    -2.1337  -2.1244  -2.1072  -2.1026  -2.0854  -2.0732  -2.0716  -2.0700
    -2.0494  -2.0483  -2.0401  -2.0234  -1.9837  -1.9801  -1.9696  -1.9677
    -1.9657  -1.9575  -1.9553  -1.9430  -1.9413  -1.9384  -1.9368  -1.9333
    -1.9320  -1.9281  -1.9196  -1.9184  -1.9013  -1.9001  -1.8947  -1.8912
    -1.8892  -1.8888  -1.8663  -1.8656  -1.8545  -1.8525  -1.8467  -1.8454
    -1.8097  -1.7763  -1.7754  -1.7400  -1.7233  -1.7225  -1.7130  -1.7078
    -1.6895  -1.6830  -1.6750  -1.6726  -1.6721  -1.6703  -1.6650  -1.6561
    -1.6359  -1.6352  -1.6351  -1.5907  -1.5886  -1.5502  -1.5474  -1.5031
    -1.5004  -1.4893  -1.4673  -1.4636  -1.4596  -1.4434  -1.4408  -1.4247
    -1.4243  -1.4205  -1.4198  -1.4189  -1.4171  -1.4127  -1.4091  -1.3944
    -1.3928  -1.3800  -1.3662  -1.3478  -1.3444  -1.3213  -1.3204  -1.3187
    -1.3171  -1.3144  -1.3071  -1.2916  -1.2842  -1.2756  -1.2678  -1.2565
    -1.2516  -1.2384  -1.2365  -1.2074  -1.2062  -1.1991  -1.1950  -1.1627
    -1.1612  -1.1546  -1.1536  -1.1467  -1.1418  -1.1239  -1.1237  -1.1122
    -1.1055  -1.1044  -1.0926  -1.0924  -1.0914  -1.0843  -1.0771  -1.0660
    -1.0628  -1.0574  -1.0569  -1.0459  -1.0415  -1.0354  -1.0342  -0.9944
    -0.9919  -0.9901  -0.9855  -0.9851  -0.9838  -0.9460  -0.9297  -0.9286
    -0.9275  -0.9267  -0.9229  -0.9182  -0.9141  -0.9038  -0.9023  -0.8674
    -0.8649  -0.8591  -0.8585  -0.8365  -0.8360  -0.8264  -0.7970  -0.7892
    -0.7622  -0.7615  -0.7336  -0.7332  -0.7303  -0.7295  -0.7286  -0.7239
    -0.7193  -0.7191  -0.7149  -0.7141  -0.6829  -0.6820  -0.6663  -0.6624
    -0.6594  -0.6589  -0.6556  -0.6450  -0.6382  -0.3625  -0.3528  -0.2995
    -0.2857  -0.2562  -0.0937  -0.0314  -0.0296   0.0066   0.2872   0.2926
     0.6140   0.6262   0.7167   0.7192   0.7565   0.7633   0.9016   0.9076
     1.0261   1.0285   1.1158   1.7139   1.7313   1.7336   1.7713   1.7759
     1.8109   1.8321   1.8993   1.9067   2.1068   2.1110   2.3410   2.4175
     2.4324   2.4423   2.8100   2.8262   2.8939   2.8946   2.9011   2.9047
     3.0524   3.0544   3.0733   3.1937   3.1973   3.4264   3.4320   3.5636
     3.5854   3.5926   3.8570   3.8616   3.9701   3.9846   3.9950   3.9981
     4.0385   4.1786   4.1838   4.4136   4.4178   4.4942   4.5014   4.6051
     4.6314   4.6398   4.6529   4.6752   4.8794   5.3791   5.4061   5.4557
     5.5516   5.5630   5.5988   5.7262   5.7373   5.7435   5.7491   5.8468
     5.8574   5.9099   5.9115   5.9492   5.9908   6.0548   6.0767   6.1902
     6.1987   6.2220   6.2269   6.2313   6.2467   6.2536   6.2616   6.2637

     the Fermi energy is     0.9779 ev

!    total energy              =   -7425.29116536 Ry
     Harris-Foulkes estimate   =   -7425.29116537 Ry
     estimated scf accuracy    <          2.2E-09 Ry

     The total energy is the sum of the following terms:

     one-electron contribution =  -48851.87933590 Ry
     hartree contribution      =   24979.84620512 Ry
     xc contribution           =   -3604.22969321 Ry
     ewald contribution        =   20050.97457296 Ry
     smearing contrib. (-TS)   =      -0.00291432 Ry

     convergence has been achieved in  26 iterations

     Writing output data file 5175972.save

     init_run     :    139.90s CPU    146.80s WALL (       1 calls)
     electrons    :   7121.22s CPU   7518.62s WALL (       1 calls)

     Called by init_run:
     wfcinit      :    111.73s CPU    117.96s WALL (       1 calls)
     potinit      :      5.60s CPU      6.00s WALL (       1 calls)

     Called by electrons:
     c_bands      :   6095.56s CPU   6409.79s WALL (      27 calls)
     sum_band     :    719.57s CPU    788.58s WALL (      27 calls)
     v_of_rho     :     65.47s CPU     74.89s WALL (      27 calls)
     newd         :    248.39s CPU    252.74s WALL (      27 calls)
     mix_rho      :      2.08s CPU      2.43s WALL (      27 calls)
     vdW_energy   :      9.24s CPU      9.77s WALL (      27 calls)
     vdW_ffts     :     26.81s CPU     31.55s WALL (      54 calls)
     vdW_v        :      8.67s CPU      9.45s WALL (      27 calls)

     Called by c_bands:
     init_us_2    :      9.78s CPU     10.09s WALL (     330 calls)
     cegterg      :   6033.96s CPU   6338.78s WALL (     162 calls)

     Called by *egterg:
     h_psi        :   2148.90s CPU   2425.50s WALL (     830 calls)
     s_psi        :    464.22s CPU    466.45s WALL (     830 calls)
     g_psi        :      5.18s CPU      5.19s WALL (     662 calls)
     cdiaghg      :   2090.56s CPU   2096.78s WALL (     818 calls)

     Called by h_psi:
     add_vuspsi   :    464.84s CPU    467.04s WALL (     830 calls)

     General routines
     calbec       :    645.59s CPU    647.95s WALL (     992 calls)
     fft          :     62.47s CPU     71.41s WALL (    1782 calls)
     ffts         :      0.76s CPU      0.97s WALL (      54 calls)
     fftw         :   1325.70s CPU   1628.09s WALL (  437924 calls)
     interpolate  :      2.18s CPU      2.75s WALL (      54 calls)
     davcio       :      0.00s CPU      0.11s WALL (       6 calls)

     Parallel routines
     fft_scatter  :    725.31s CPU    923.31s WALL (  439760 calls)

     PWSCF        :     2h 1m CPU        2h 8m WALL


   This run was terminated on:  13:22: 3   3Jul2015            

=------------------------------------------------------------------------------=
   JOB DONE.
=------------------------------------------------------------------------------=
