Setting SGE environment for SCC

     Program PWSCF v.5.1.2 starts on  3Jul2015 at 15:35:47 

     This program is part of the open-source Quantum ESPRESSO suite
     for quantum simulation of materials; please cite
         "P. Giannozzi et al., J. Phys.:Condens. Matter 21 395502 (2009);
          URL http://www.quantum-espresso.org", 
     in publications or presentations arising from this work. More details at
     http://www.quantum-espresso.org/quote

     Parallel version (MPI), running on    32 processors
     R & G space division:  proc/nbgrp/npool/nimage =      32
     Reading input from hollow.O1.Au5859.d.2.7.phi.45.psi.90.in
Warning: card &IONS ignored
Warning: card / ignored
Warning: card &CELL ignored
Warning: card / ignored

     Current dimensions of program PWSCF are:
     Max number of different atomic species (ntypx) = 10
     Max number of k-points (npk) =  40000
     Max angular momentum in pseudopotentials (lmaxx) =  3

     IMPORTANT: XC functional enforced from input :
     Exchange-correlation      = VDW-DF ( 1  4  4  0 1 0)
     Any further DFT definition will be discarded
     Please, verify this is what you really want


     Subspace diagonalization in iterative solution of the eigenvalue problem:
     a serial algorithm will be used


     Parallelization info
     --------------------
     sticks:   dense  smooth     PW     G-vecs:    dense   smooth      PW
     Min         578     289     74               118518    41891    5486
     Max         579     290     75               118533    41932    5497
     Sum       18505    9265   2385              3792731  1341081  175711


     Title: 
     hollow.O1.Au5859.d.2.7.phi.45.psi.90                                       


     bravais-lattice index     =            8
     lattice parameter (alat)  =      24.1233  a.u.
     unit-cell volume          =   28076.2361 (a.u.)^3
     number of atoms/cell      =           75
     number of atomic types    =            3
     number of electrons       =       800.00
     number of Kohn-Sham states=          480
     kinetic-energy cutoff     =      50.0000  Ry
     charge density cutoff     =     400.0000  Ry
     convergence threshold     =      1.0E-08
     mixing beta               =       0.7000
     number of iterations used =            8  plain     mixing
     Exchange-correlation      = VDW-DF ( 1  4  4  0 1 0)

     celldm(1)=  24.123277  celldm(2)=   1.000000  celldm(3)=   2.000000
     celldm(4)=   0.000000  celldm(5)=   0.000000  celldm(6)=   0.000000

     crystal axes: (cart. coord. in units of alat)
               a(1) = (   1.000000   0.000000   0.000000 )  
               a(2) = (   0.000000   1.000000   0.000000 )  
               a(3) = (   0.000000   0.000000   2.000000 )  

     reciprocal axes: (cart. coord. in units 2 pi/alat)
               b(1) = (  1.000000  0.000000  0.000000 )  
               b(2) = (  0.000000  1.000000  0.000000 )  
               b(3) = (  0.000000  0.000000  0.500000 )  


     PseudoPot. # 1 for Au read from file:
     /home/scc/andrejb/qe/pseudo/Au.pbe-nd-van.UPF
     MD5 check sum: 458681b50f36d87ef23c61b04bba420a
     Pseudo is Ultrasoft + core correction, Zval = 11.0
     Generated by new atomic code, or converted to UPF format
     Using radial grid of  985 points,  3 beta functions with: 
                l(1) =   1
                l(2) =   2
                l(3) =   2
     Q(r) pseudized with  8 coefficients,  rinner =    1.100   1.100   1.100
                                                       1.100   1.100

     PseudoPot. # 2 for H  read from file:
     /home/scc/andrejb/qe/pseudo/H.pbe-van_ak.UPF
     MD5 check sum: 403db7282739603aa925980fa9b8608d
     Pseudo is Ultrasoft, Zval =  1.0
     Generated by new atomic code, or converted to UPF format
     Using radial grid of  615 points,  1 beta functions with: 
                l(1) =   0
     Q(r) pseudized with  8 coefficients,  rinner =    0.800

     PseudoPot. # 3 for O  read from file:
     /home/scc/andrejb/qe/pseudo/O.pbe-van_ak.UPF
     MD5 check sum: 4b8c549914a63cae506c6ff22b5af4fe
     Pseudo is Ultrasoft, Zval =  6.0
     Generated by new atomic code, or converted to UPF format
     Using radial grid of  737 points,  4 beta functions with: 
                l(1) =   0
                l(2) =   0
                l(3) =   1
                l(4) =   1
     Q(r) pseudized with  8 coefficients,  rinner =    0.800   0.800   0.800


     vdW kernel table read from file vdW_kernel_table
     MD5 check sum: 48e77a2e26edf626eeb0eaa751ad5cac

     atomic species   valence    mass     pseudopotential
        Au            11.00   196.96657     Au( 1.00)
        H              1.00     1.01000     H ( 1.00)
        O              6.00    16.00000     O ( 1.00)

     No symmetry found



   Cartesian axes

     site n.     atom                  positions (alat units)
         1           O   tau(   1) = (   0.1666051   0.1666105   0.9066623  )
         2           H   tau(   2) = (   0.1610146   0.1211166   0.8456750  )
         3           H   tau(   3) = (   0.1720135   0.1187528   0.9658132  )
         4           Au  tau(   4) = (   0.0000000   0.0000000   0.0000000  )
         5           Au  tau(   5) = (   0.3332217   0.0000000   0.0000000  )
         6           Au  tau(   6) = (   0.6664434   0.0000000   0.0000000  )
         7           Au  tau(   7) = (   0.1666109   0.1666109   0.0000000  )
         8           Au  tau(   8) = (   0.4998326   0.1666109   0.0000000  )
         9           Au  tau(   9) = (   0.8330542   0.1666109   0.0000000  )
        10           Au  tau(  10) = (   0.0000000   0.3332217   0.0000000  )
        11           Au  tau(  11) = (   0.3332217   0.3332217   0.0000000  )
        12           Au  tau(  12) = (   0.6664434   0.3332217   0.0000000  )
        13           Au  tau(  13) = (   0.1666109   0.4998326   0.0000000  )
        14           Au  tau(  14) = (   0.4998326   0.4998326   0.0000000  )
        15           Au  tau(  15) = (   0.8330542   0.4998326   0.0000000  )
        16           Au  tau(  16) = (   0.0000000   0.6664434   0.0000000  )
        17           Au  tau(  17) = (   0.3332217   0.6664434   0.0000000  )
        18           Au  tau(  18) = (   0.6664434   0.6664434   0.0000000  )
        19           Au  tau(  19) = (   0.1666109   0.8330542   0.0000000  )
        20           Au  tau(  20) = (   0.4998326   0.8330542   0.0000000  )
        21           Au  tau(  21) = (   0.8330542   0.8330542   0.0000000  )
        22           Au  tau(  22) = (   0.1666109   0.0000000   0.1666109  )
        23           Au  tau(  23) = (   0.4998326   0.0000000   0.1666109  )
        24           Au  tau(  24) = (   0.8330542   0.0000000   0.1666109  )
        25           Au  tau(  25) = (   0.0000000   0.1666109   0.1666109  )
        26           Au  tau(  26) = (   0.3332217   0.1666109   0.1666109  )
        27           Au  tau(  27) = (   0.6664434   0.1666109   0.1666109  )
        28           Au  tau(  28) = (   0.1666109   0.3332217   0.1666109  )
        29           Au  tau(  29) = (   0.4998326   0.3332217   0.1666109  )
        30           Au  tau(  30) = (   0.8330542   0.3332217   0.1666109  )
        31           Au  tau(  31) = (   0.0000000   0.4998326   0.1666109  )
        32           Au  tau(  32) = (   0.3332217   0.4998326   0.1666109  )
        33           Au  tau(  33) = (   0.6664434   0.4998326   0.1666109  )
        34           Au  tau(  34) = (   0.1666109   0.6664434   0.1666109  )
        35           Au  tau(  35) = (   0.4998326   0.6664434   0.1666109  )
        36           Au  tau(  36) = (   0.8330542   0.6664434   0.1666109  )
        37           Au  tau(  37) = (   0.0000000   0.8330542   0.1666109  )
        38           Au  tau(  38) = (   0.3332217   0.8330542   0.1666109  )
        39           Au  tau(  39) = (   0.6664434   0.8330542   0.1666109  )
        40           Au  tau(  40) = (  -0.0000182  -0.0000182   0.3335478  )
        41           Au  tau(  41) = (   0.3332215  -0.0000181   0.3335473  )
        42           Au  tau(  42) = (   0.6664447  -0.0000183   0.3335481  )
        43           Au  tau(  43) = (  -0.0000181   0.3332215   0.3335473  )
        44           Au  tau(  44) = (   0.3332215   0.3332215   0.3335468  )
        45           Au  tau(  45) = (   0.6664445   0.3332215   0.3335477  )
        46           Au  tau(  46) = (  -0.0000183   0.6664447   0.3335481  )
        47           Au  tau(  47) = (   0.3332215   0.6664445   0.3335477  )
        48           Au  tau(  48) = (   0.6664446   0.6664446   0.3335486  )
        49           Au  tau(  49) = (   0.1666097   0.1666097   0.3335483  )
        50           Au  tau(  50) = (   0.4998320   0.1666098   0.3335477  )
        51           Au  tau(  51) = (   0.8330732   0.1666096   0.3335480  )
        52           Au  tau(  52) = (   0.1666098   0.4998320   0.3335477  )
        53           Au  tau(  53) = (   0.4998322   0.4998322   0.3335470  )
        54           Au  tau(  54) = (   0.8330731   0.4998322   0.3335474  )
        55           Au  tau(  55) = (   0.1666096   0.8330732   0.3335480  )
        56           Au  tau(  56) = (   0.4998322   0.8330731   0.3335474  )
        57           Au  tau(  57) = (   0.8330731   0.8330731   0.3335478  )
        58           Au  tau(  58) = (   0.1666104  -0.0000111   0.4993095  )
        59           Au  tau(  59) = (   0.4998323  -0.0000112   0.4993099  )
        60           Au  tau(  60) = (   0.8330660  -0.0000111   0.4993009  )
        61           Au  tau(  61) = (  -0.0000111   0.1666104   0.4993095  )
        62           Au  tau(  62) = (   0.3332213   0.1666106   0.4993185  )
        63           Au  tau(  63) = (   0.6664437   0.1666106   0.4993187  )
        64           Au  tau(  64) = (   0.1666106   0.3332213   0.4993185  )
        65           Au  tau(  65) = (   0.4998324   0.3332216   0.4993185  )
        66           Au  tau(  66) = (   0.8330658   0.3332215   0.4993102  )
        67           Au  tau(  67) = (  -0.0000112   0.4998323   0.4993099  )
        68           Au  tau(  68) = (   0.3332216   0.4998324   0.4993185  )
        69           Au  tau(  69) = (   0.6664437   0.4998325   0.4993187  )
        70           Au  tau(  70) = (   0.1666106   0.6664437   0.4993187  )
        71           Au  tau(  71) = (   0.4998325   0.6664437   0.4993187  )
        72           Au  tau(  72) = (   0.8330658   0.6664438   0.4993102  )
        73           Au  tau(  73) = (  -0.0000111   0.8330660   0.4993009  )
        74           Au  tau(  74) = (   0.3332215   0.8330658   0.4993102  )
        75           Au  tau(  75) = (   0.6664438   0.8330658   0.4993102  )

     number of k points=     6  Marzari-Vanderbilt smearing, width (Ry)=  0.0200
                       cart. coord. in units 2pi/alat
        k(    1) = (   0.2500000   0.2500000   0.0833333), wk =   0.3333333
        k(    2) = (   0.2500000   0.2500000  -0.2500000), wk =   0.3333333
        k(    3) = (  -0.2500000  -0.2500000   0.0833333), wk =   0.3333333
        k(    4) = (  -0.2500000   0.2500000  -0.0833333), wk =   0.3333333
        k(    5) = (   0.2500000  -0.2500000  -0.0833333), wk =   0.3333333
        k(    6) = (  -0.2500000   0.2500000   0.2500000), wk =   0.3333333

     Dense  grid:  3792731 G-vectors     FFT dimensions: ( 160, 160, 320)

     Smooth grid:  1341081 G-vectors     FFT dimensions: ( 120, 120, 225)

     Largest allocated arrays     est. size (Mb)     dimensions
        Kohn-Sham Wavefunctions        38.58 Mb     (    5267,  480)
        NL pseudopotentials            76.03 Mb     (    5267,  946)
        Each V/rho on FFT grid          3.91 Mb     (  256000)
        Each G-vector array             0.90 Mb     (  118520)
        G-vector shells                 0.08 Mb     (   10286)
     Largest temporary arrays     est. size (Mb)     dimensions
        Auxiliary wavefunctions       154.31 Mb     (    5267, 1920)
        Each subspace H/S matrix       56.25 Mb     (    1920, 1920)
        Each <psi_i|beta_j> matrix      6.93 Mb     (     946,  480)
        Arrays for rho mixing          31.25 Mb     (  256000,    8)

     Initial potential from superposition of free atoms
     Check: negative starting charge=   -1.944749

     starting charge  799.16392, renormalised to  800.00000

     negative rho (up, down):  1.947E+00 0.000E+00


     ************************************************************************
     *
     * You are using vdW-DF for exchange-correlation in this calculation.
     * Please cite the following three references that made this development
     * possible:
     *
     *   M. Dion, H. Rydberg, E. Schroder, D. C. Langreth, and
     *   B. I. Lundqvist, Phys. Rev. Lett. 92, 246401 (2004).
     *
     *   T. Thonhauser, V. R. Cooper, S. Li, A. Puzder, P. Hyldgaard, and
     *   D. C. Langreth, Phys. Rev. B 76, 125112 (2007).
     *
     *   G. Roman-Perez and J. M. Soler, Phys. Rev. Lett. 103, 096102 (2009).
     *
     *
     * If you are using vdW-DF2, please also cite:
     *
     *   K. Lee, E. D. Murray, L. Kong, B. I. Lundqvist, and
     *   D. C. Langreth, Phys. Rev. B 82, 081101(R) (2010).
     *
     *
     * If you are calculating the stress with vdW-DF, please also cite:
     *
     *   R. Sabatini, E. Kucukbenli, B. Kolb, T. Thonhauser, and
     *   S. de Gironcoli, J. Phys.: Condens. Matter 24, 424209 (2012).
     *
     ************************************************************************

     Carrying out vdW-DF run using the following parameters:

     Nqs =      20    Nr_points =    1024   r_max =   100.000
     q_mesh =
               0.00001000     0.04494208     0.09755937     0.15916263
               0.23128650     0.31572767     0.41458969     0.53033537
               0.66584808     0.82450364     1.01025438     1.22772762
               1.48234092     1.78043706     2.12944203     2.53805004
               3.01644009     3.57652955     4.23227104     5.00000000

     Gradients computed in reciprocal space

     ************************************************************************


     Starting wfc are  654 randomized atomic wfcs

     total cpu time spent up to now is      131.8 secs

     Self-consistent Calculation

     iteration #  1     ecut=    50.00 Ry     beta=0.70
     Davidson diagonalization with overlap
     ethr =  1.00E-02,  avg # of iterations =  3.0

     Threshold (ethr) on eigenvalues was too large:
     Diagonalizing with lowered threshold

     Davidson diagonalization with overlap
     ethr =  4.29E-04,  avg # of iterations =  2.2

     negative rho (up, down):  1.948E+00 0.000E+00

     total cpu time spent up to now is      638.3 secs

     total energy              =   -7422.99779393 Ry
     Harris-Foulkes estimate   =   -7426.08633364 Ry
     estimated scf accuracy    <       3.80964927 Ry

     iteration #  2     ecut=    50.00 Ry     beta=0.70
     Davidson diagonalization with overlap
     ethr =  4.76E-04,  avg # of iterations = 11.2

     negative rho (up, down):  1.942E+00 0.000E+00

     total cpu time spent up to now is     1378.8 secs

     total energy              =   -7414.84319742 Ry
     Harris-Foulkes estimate   =   -7432.74248955 Ry
     estimated scf accuracy    <      93.78980870 Ry

     iteration #  3     ecut=    50.00 Ry     beta=0.70
     Davidson diagonalization with overlap
     ethr =  4.76E-04,  avg # of iterations =  6.0

     negative rho (up, down):  1.953E+00 0.000E+00

     total cpu time spent up to now is     1869.2 secs

     total energy              =   -7424.03912095 Ry
     Harris-Foulkes estimate   =   -7425.91894513 Ry
     estimated scf accuracy    <       8.08680760 Ry

     iteration #  4     ecut=    50.00 Ry     beta=0.70
     Davidson diagonalization with overlap
     ethr =  4.76E-04,  avg # of iterations =  6.3

     negative rho (up, down):  1.955E+00 0.000E+00

     total cpu time spent up to now is     2176.8 secs

     total energy              =   -7424.83010038 Ry
     Harris-Foulkes estimate   =   -7425.63637570 Ry
     estimated scf accuracy    <       4.16160357 Ry

     iteration #  5     ecut=    50.00 Ry     beta=0.70
     Davidson diagonalization with overlap
     ethr =  4.76E-04,  avg # of iterations =  6.0

     negative rho (up, down):  1.963E+00 0.000E+00

     total cpu time spent up to now is     2464.6 secs

     total energy              =   -7425.05318732 Ry
     Harris-Foulkes estimate   =   -7425.60460779 Ry
     estimated scf accuracy    <       4.45608405 Ry

     iteration #  6     ecut=    50.00 Ry     beta=0.70
     Davidson diagonalization with overlap
     ethr =  4.76E-04,  avg # of iterations =  2.0

     negative rho (up, down):  1.968E+00 0.000E+00

     total cpu time spent up to now is     2713.9 secs

     total energy              =   -7425.28599682 Ry
     Harris-Foulkes estimate   =   -7425.32098732 Ry
     estimated scf accuracy    <       0.10962835 Ry

     iteration #  7     ecut=    50.00 Ry     beta=0.70
     Davidson diagonalization with overlap
     ethr =  1.37E-05,  avg # of iterations =  9.5

     negative rho (up, down):  1.970E+00 0.000E+00

     total cpu time spent up to now is     3153.4 secs

     total energy              =   -7425.27657355 Ry
     Harris-Foulkes estimate   =   -7425.32330969 Ry
     estimated scf accuracy    <       0.24908949 Ry

     iteration #  8     ecut=    50.00 Ry     beta=0.70
     Davidson diagonalization with overlap
     ethr =  1.37E-05,  avg # of iterations =  3.3

     negative rho (up, down):  1.972E+00 0.000E+00

     total cpu time spent up to now is     3415.9 secs

     total energy              =   -7425.28903984 Ry
     Harris-Foulkes estimate   =   -7425.30294552 Ry
     estimated scf accuracy    <       0.05148684 Ry

     iteration #  9     ecut=    50.00 Ry     beta=0.70
     Davidson diagonalization with overlap
     ethr =  6.44E-06,  avg # of iterations =  8.7

     negative rho (up, down):  1.972E+00 0.000E+00

     total cpu time spent up to now is     3799.7 secs

     total energy              =   -7425.28689995 Ry
     Harris-Foulkes estimate   =   -7425.29667381 Ry
     estimated scf accuracy    <       0.03470885 Ry

     iteration # 10     ecut=    50.00 Ry     beta=0.70
     Davidson diagonalization with overlap
     ethr =  4.34E-06,  avg # of iterations =  6.2

     negative rho (up, down):  1.974E+00 0.000E+00

     total cpu time spent up to now is     4097.9 secs

     total energy              =   -7425.28794048 Ry
     Harris-Foulkes estimate   =   -7425.29121800 Ry
     estimated scf accuracy    <       0.01038139 Ry

     iteration # 11     ecut=    50.00 Ry     beta=0.70
     Davidson diagonalization with overlap
     ethr =  1.30E-06,  avg # of iterations = 11.0

     negative rho (up, down):  1.974E+00 0.000E+00

     total cpu time spent up to now is     4440.0 secs

     total energy              =   -7425.28791734 Ry
     Harris-Foulkes estimate   =   -7425.28926313 Ry
     estimated scf accuracy    <       0.00552951 Ry

     iteration # 12     ecut=    50.00 Ry     beta=0.70
     Davidson diagonalization with overlap
     ethr =  6.91E-07,  avg # of iterations =  1.3

     negative rho (up, down):  1.975E+00 0.000E+00

     total cpu time spent up to now is     4659.0 secs

     total energy              =   -7425.28682536 Ry
     Harris-Foulkes estimate   =   -7425.28833979 Ry
     estimated scf accuracy    <       0.00210963 Ry

     iteration # 13     ecut=    50.00 Ry     beta=0.70
     Davidson diagonalization with overlap
     ethr =  2.64E-07,  avg # of iterations =  9.2

     negative rho (up, down):  1.974E+00 0.000E+00

     total cpu time spent up to now is     5009.5 secs

     total energy              =   -7425.28672611 Ry
     Harris-Foulkes estimate   =   -7425.28764517 Ry
     estimated scf accuracy    <       0.00359490 Ry

     iteration # 14     ecut=    50.00 Ry     beta=0.70
     Davidson diagonalization with overlap
     ethr =  2.64E-07,  avg # of iterations =  2.3

     negative rho (up, down):  1.974E+00 0.000E+00

     total cpu time spent up to now is     5239.0 secs

     total energy              =   -7425.28709011 Ry
     Harris-Foulkes estimate   =   -7425.28737334 Ry
     estimated scf accuracy    <       0.00125752 Ry

     iteration # 15     ecut=    50.00 Ry     beta=0.70
     Davidson diagonalization with overlap
     ethr =  1.57E-07,  avg # of iterations =  2.0

     negative rho (up, down):  1.974E+00 0.000E+00

     total cpu time spent up to now is     5484.1 secs

     total energy              =   -7425.28718324 Ry
     Harris-Foulkes estimate   =   -7425.28731420 Ry
     estimated scf accuracy    <       0.00050152 Ry

     iteration # 16     ecut=    50.00 Ry     beta=0.70
     Davidson diagonalization with overlap
     ethr =  6.27E-08,  avg # of iterations =  2.0

     negative rho (up, down):  1.974E+00 0.000E+00

     total cpu time spent up to now is     5711.3 secs

     total energy              =   -7425.28719503 Ry
     Harris-Foulkes estimate   =   -7425.28731609 Ry
     estimated scf accuracy    <       0.00095073 Ry

     iteration # 17     ecut=    50.00 Ry     beta=0.70
     Davidson diagonalization with overlap
     ethr =  6.27E-08,  avg # of iterations =  1.0

     negative rho (up, down):  1.974E+00 0.000E+00

     total cpu time spent up to now is     5931.4 secs

     total energy              =   -7425.28725396 Ry
     Harris-Foulkes estimate   =   -7425.28727049 Ry
     estimated scf accuracy    <       0.00006954 Ry

     iteration # 18     ecut=    50.00 Ry     beta=0.70
     Davidson diagonalization with overlap
     ethr =  8.69E-09,  avg # of iterations =  2.0

     negative rho (up, down):  1.974E+00 0.000E+00

     total cpu time spent up to now is     6181.4 secs

     total energy              =   -7425.28726087 Ry
     Harris-Foulkes estimate   =   -7425.28726487 Ry
     estimated scf accuracy    <       0.00001461 Ry

     iteration # 19     ecut=    50.00 Ry     beta=0.70
     Davidson diagonalization with overlap
     ethr =  1.83E-09,  avg # of iterations =  3.0

     negative rho (up, down):  1.974E+00 0.000E+00

     total cpu time spent up to now is     6438.6 secs

     total energy              =   -7425.28726055 Ry
     Harris-Foulkes estimate   =   -7425.28726667 Ry
     estimated scf accuracy    <       0.00003109 Ry

     iteration # 20     ecut=    50.00 Ry     beta=0.70
     Davidson diagonalization with overlap
     ethr =  1.83E-09,  avg # of iterations =  2.0

     negative rho (up, down):  1.974E+00 0.000E+00

     total cpu time spent up to now is     6666.8 secs

     total energy              =   -7425.28726381 Ry
     Harris-Foulkes estimate   =   -7425.28726417 Ry
     estimated scf accuracy    <       0.00000217 Ry

     iteration # 21     ecut=    50.00 Ry     beta=0.70
     Davidson diagonalization with overlap
     ethr =  2.72E-10,  avg # of iterations =  2.0

     negative rho (up, down):  1.974E+00 0.000E+00

     total cpu time spent up to now is     6918.3 secs

     total energy              =   -7425.28726425 Ry
     Harris-Foulkes estimate   =   -7425.28726425 Ry
     estimated scf accuracy    <       0.00000042 Ry

     iteration # 22     ecut=    50.00 Ry     beta=0.70
     Davidson diagonalization with overlap
     ethr =  5.23E-11,  avg # of iterations =  3.0

     negative rho (up, down):  1.974E+00 0.000E+00

     total cpu time spent up to now is     7206.3 secs

     total energy              =   -7425.28726429 Ry
     Harris-Foulkes estimate   =   -7425.28726444 Ry
     estimated scf accuracy    <       0.00000073 Ry

     iteration # 23     ecut=    50.00 Ry     beta=0.70
     Davidson diagonalization with overlap
     ethr =  5.23E-11,  avg # of iterations =  3.0

     negative rho (up, down):  1.974E+00 0.000E+00

     total cpu time spent up to now is     7500.2 secs

     total energy              =   -7425.28726438 Ry
     Harris-Foulkes estimate   =   -7425.28726440 Ry
     estimated scf accuracy    <       0.00000012 Ry

     iteration # 24     ecut=    50.00 Ry     beta=0.70
     Davidson diagonalization with overlap
     ethr =  1.53E-11,  avg # of iterations =  3.0

     negative rho (up, down):  1.974E+00 0.000E+00

     total cpu time spent up to now is     7763.4 secs

     total energy              =   -7425.28726440 Ry
     Harris-Foulkes estimate   =   -7425.28726444 Ry
     estimated scf accuracy    <       0.00000030 Ry

     iteration # 25     ecut=    50.00 Ry     beta=0.70
     Davidson diagonalization with overlap
     ethr =  1.53E-11,  avg # of iterations =  2.3

     negative rho (up, down):  1.974E+00 0.000E+00

     total cpu time spent up to now is     8000.7 secs

     total energy              =   -7425.28726445 Ry
     Harris-Foulkes estimate   =   -7425.28726444 Ry
     estimated scf accuracy    <       0.00000005 Ry

     iteration # 26     ecut=    50.00 Ry     beta=0.70
     Davidson diagonalization with overlap
     ethr =  6.49E-12,  avg # of iterations =  2.0

     negative rho (up, down):  1.974E+00 0.000E+00

     total cpu time spent up to now is     8228.6 secs

     total energy              =   -7425.28726446 Ry
     Harris-Foulkes estimate   =   -7425.28726446 Ry
     estimated scf accuracy    <       0.00000011 Ry

     iteration # 27     ecut=    50.00 Ry     beta=0.70
     Davidson diagonalization with overlap
     ethr =  6.49E-12,  avg # of iterations =  2.0

     negative rho (up, down):  1.974E+00 0.000E+00

     total cpu time spent up to now is     8453.1 secs

     total energy              =   -7425.28726447 Ry
     Harris-Foulkes estimate   =   -7425.28726447 Ry
     estimated scf accuracy    <       0.00000003 Ry

     iteration # 28     ecut=    50.00 Ry     beta=0.70
     Davidson diagonalization with overlap
     ethr =  4.23E-12,  avg # of iterations =  2.0

     negative rho (up, down):  1.974E+00 0.000E+00

     total cpu time spent up to now is     8696.1 secs

     total energy              =   -7425.28726448 Ry
     Harris-Foulkes estimate   =   -7425.28726447 Ry
     estimated scf accuracy    <       0.00000001 Ry

     iteration # 29     ecut=    50.00 Ry     beta=0.70
     Davidson diagonalization with overlap
     ethr =  1.33E-12,  avg # of iterations =  2.0

     negative rho (up, down):  1.974E+00 0.000E+00

     total cpu time spent up to now is     8924.7 secs

     End of self-consistent calculation

          k = 0.2500 0.2500 0.0833 (167653 PWs)   bands (ev):

   -19.2697  -7.0851  -6.8466  -6.3181  -6.3178  -5.8884  -5.4793  -5.3862
    -5.3859  -5.1901  -5.1901  -5.0724  -5.0718  -4.9937  -4.9707  -4.8977
    -4.8128  -4.8091  -4.7701  -4.7700  -4.6091  -4.5925  -4.5914  -4.5912
    -4.5843  -4.5285  -4.5285  -4.5167  -4.5164  -4.4796  -4.4670  -4.4666
    -4.4248  -4.4248  -4.3913  -4.3901  -4.3382  -4.3378  -4.3270  -4.3261
    -4.3208  -4.3076  -4.3075  -4.2662  -4.2482  -4.2481  -4.2412  -4.2410
    -4.2088  -4.1590  -4.1440  -4.1438  -4.1399  -4.1397  -4.1321  -4.1265
    -4.1261  -4.1260  -4.0610  -4.0605  -4.0111  -4.0107  -3.9985  -3.9725
    -3.9724  -3.9524  -3.9501  -3.9495  -3.9451  -3.9422  -3.8933  -3.8933
    -3.8803  -3.8800  -3.7749  -3.7746  -3.7687  -3.7683  -3.7313  -3.7217
    -3.7080  -3.6780  -3.6779  -3.6494  -3.6491  -3.6274  -3.6272  -3.6137
    -3.6134  -3.5588  -3.5587  -3.5401  -3.5247  -3.5131  -3.5118  -3.5117
    -3.5101  -3.4831  -3.4829  -3.4467  -3.4466  -3.4240  -3.4238  -3.3910
    -3.3907  -3.3725  -3.3451  -3.3451  -3.3078  -3.3076  -3.2918  -3.2722
    -3.2648  -3.2641  -3.2500  -3.2498  -3.2449  -3.2448  -3.2059  -3.1961
    -3.1552  -3.1552  -3.1474  -3.1378  -3.1372  -3.1357  -3.1113  -3.1113
    -3.0901  -3.0895  -3.0892  -3.0624  -3.0624  -3.0549  -3.0520  -3.0520
    -3.0160  -3.0115  -2.9764  -2.9761  -2.9753  -2.9724  -2.9723  -2.8933
    -2.8832  -2.8788  -2.8785  -2.8772  -2.8770  -2.8721  -2.8720  -2.8718
    -2.8716  -2.8621  -2.8543  -2.8371  -2.8346  -2.8340  -2.8336  -2.8190
    -2.8143  -2.7762  -2.7755  -2.7752  -2.7713  -2.7709  -2.7528  -2.7526
    -2.7437  -2.7437  -2.7415  -2.6818  -2.6818  -2.6765  -2.6764  -2.6714
    -2.6712  -2.6431  -2.5841  -2.5828  -2.5825  -2.5807  -2.5693  -2.5670
    -2.5622  -2.5513  -2.5511  -2.5143  -2.5138  -2.5052  -2.5047  -2.5042
    -2.5040  -2.4645  -2.4643  -2.4545  -2.4545  -2.4530  -2.4528  -2.4109
    -2.3949  -2.3894  -2.3360  -2.3358  -2.3172  -2.3157  -2.3104  -2.3103
    -2.2618  -2.2612  -2.2380  -2.2215  -2.2073  -2.2067  -2.2064  -2.1845
    -2.1844  -2.1747  -2.1582  -2.1169  -2.1165  -2.1031  -2.1028  -2.1027
    -2.0915  -2.0914  -2.0760  -2.0758  -2.0750  -2.0715  -2.0665  -2.0665
    -2.0658  -2.0538  -2.0536  -2.0359  -2.0357  -2.0336  -2.0275  -2.0246
    -2.0244  -2.0006  -2.0004  -1.9892  -1.9870  -1.9827  -1.9822  -1.9440
    -1.9102  -1.9098  -1.8745  -1.8572  -1.8570  -1.8463  -1.8459  -1.8227
    -1.8223  -1.8078  -1.8075  -1.8061  -1.8060  -1.8030  -1.8026  -1.7704
    -1.7703  -1.7701  -1.7240  -1.7238  -1.6840  -1.6837  -1.6366  -1.6365
    -1.6242  -1.6017  -1.5964  -1.5941  -1.5774  -1.5758  -1.5584  -1.5580
    -1.5534  -1.5530  -1.5515  -1.5513  -1.5507  -1.5482  -1.5281  -1.5280
    -1.5175  -1.5002  -1.4811  -1.4811  -1.4548  -1.4547  -1.4518  -1.4515
    -1.4484  -1.4457  -1.4239  -1.4235  -1.4089  -1.4082  -1.3957  -1.3854
    -1.3719  -1.3716  -1.3408  -1.3405  -1.3326  -1.3324  -1.2972  -1.2967
    -1.2887  -1.2884  -1.2799  -1.2796  -1.2707  -1.2581  -1.2578  -1.2459
    -1.2393  -1.2390  -1.2259  -1.2256  -1.2252  -1.2249  -1.2106  -1.2003
    -1.1994  -1.1922  -1.1921  -1.1801  -1.1754  -1.1752  -1.1685  -1.1293
    -1.1270  -1.1219  -1.1203  -1.1197  -1.1182  -1.0798  -1.0633  -1.0627
    -1.0624  -1.0623  -1.0578  -1.0576  -1.0527  -1.0397  -1.0376  -1.0009
    -1.0006  -0.9936  -0.9936  -0.9707  -0.9705  -0.9607  -0.9310  -0.9233
    -0.8960  -0.8957  -0.8678  -0.8677  -0.8651  -0.8638  -0.8632  -0.8592
    -0.8558  -0.8537  -0.8491  -0.8489  -0.8170  -0.8167  -0.7990  -0.7982
    -0.7933  -0.7930  -0.7916  -0.7915  -0.7727  -0.4958  -0.4871  -0.4315
    -0.4298  -0.3913  -0.2304  -0.1655  -0.1651  -0.1343   0.1537   0.1540
     0.4831   0.4848   0.5828   0.5829   0.6238   0.6246   0.7671   0.7679
     0.8916   0.8932   0.9790   1.5789   1.5969   1.5977   1.6369   1.6421
     1.6836   1.6885   1.7668   1.7675   1.9745   1.9748   2.2080   2.2888
     2.2907   2.3055   2.6836   2.6880   2.7601   2.7612   2.7672   2.7677
     2.9189   2.9197   2.9633   3.0616   3.0636   3.2935   3.2979   3.4293
     3.4563   3.4569   3.7268   3.7285   3.8397   3.8598   3.8599   3.9070
     3.9393   4.0465   4.0475   4.2839   4.2842   4.3689   4.3727   4.4965
     4.5002   4.5144   4.5227   4.6098   4.7719   5.3169   5.3219   5.4269
     5.4291   5.4525   5.6077   5.6089   5.6271   5.6885   5.7099   5.7239
     5.7269   5.7771   5.7777   5.8210   5.9106   6.0397   6.0592   6.0895
     6.1049   6.1121   6.1167   6.1199   6.1284   6.1299   6.1345   6.1804

          k = 0.2500 0.2500-0.2500 (167588 PWs)   bands (ev):

   -19.2697  -7.0851  -6.8466  -6.3181  -6.3178  -5.8884  -5.4793  -5.3862
    -5.3859  -5.1901  -5.1901  -5.0724  -5.0718  -4.9937  -4.9707  -4.8977
    -4.8128  -4.8091  -4.7701  -4.7700  -4.6091  -4.5925  -4.5914  -4.5912
    -4.5843  -4.5286  -4.5285  -4.5167  -4.5164  -4.4797  -4.4670  -4.4666
    -4.4248  -4.4247  -4.3913  -4.3901  -4.3382  -4.3378  -4.3270  -4.3261
    -4.3208  -4.3076  -4.3075  -4.2662  -4.2482  -4.2481  -4.2412  -4.2410
    -4.2088  -4.1590  -4.1440  -4.1438  -4.1399  -4.1397  -4.1321  -4.1265
    -4.1261  -4.1260  -4.0610  -4.0605  -4.0111  -4.0107  -3.9985  -3.9724
    -3.9724  -3.9524  -3.9501  -3.9495  -3.9451  -3.9422  -3.8933  -3.8933
    -3.8802  -3.8800  -3.7749  -3.7746  -3.7687  -3.7683  -3.7312  -3.7217
    -3.7080  -3.6780  -3.6779  -3.6494  -3.6491  -3.6274  -3.6272  -3.6137
    -3.6134  -3.5588  -3.5587  -3.5401  -3.5247  -3.5131  -3.5118  -3.5117
    -3.5101  -3.4831  -3.4829  -3.4466  -3.4466  -3.4240  -3.4237  -3.3910
    -3.3907  -3.3725  -3.3451  -3.3451  -3.3078  -3.3076  -3.2918  -3.2722
    -3.2648  -3.2641  -3.2500  -3.2498  -3.2449  -3.2448  -3.2059  -3.1961
    -3.1552  -3.1552  -3.1474  -3.1378  -3.1372  -3.1357  -3.1113  -3.1113
    -3.0901  -3.0895  -3.0892  -3.0624  -3.0624  -3.0549  -3.0520  -3.0520
    -3.0160  -3.0115  -2.9764  -2.9761  -2.9753  -2.9724  -2.9723  -2.8933
    -2.8832  -2.8788  -2.8785  -2.8772  -2.8770  -2.8721  -2.8719  -2.8718
    -2.8716  -2.8621  -2.8543  -2.8371  -2.8346  -2.8340  -2.8336  -2.8190
    -2.8143  -2.7762  -2.7755  -2.7752  -2.7713  -2.7709  -2.7528  -2.7526
    -2.7437  -2.7437  -2.7415  -2.6818  -2.6818  -2.6765  -2.6764  -2.6714
    -2.6712  -2.6431  -2.5841  -2.5828  -2.5825  -2.5808  -2.5693  -2.5670
    -2.5622  -2.5512  -2.5511  -2.5143  -2.5138  -2.5052  -2.5047  -2.5042
    -2.5040  -2.4645  -2.4643  -2.4545  -2.4545  -2.4530  -2.4528  -2.4109
    -2.3948  -2.3894  -2.3360  -2.3358  -2.3173  -2.3157  -2.3104  -2.3103
    -2.2618  -2.2612  -2.2380  -2.2215  -2.2073  -2.2067  -2.2064  -2.1845
    -2.1844  -2.1747  -2.1582  -2.1169  -2.1165  -2.1031  -2.1028  -2.1027
    -2.0915  -2.0914  -2.0760  -2.0758  -2.0751  -2.0715  -2.0665  -2.0665
    -2.0658  -2.0538  -2.0536  -2.0359  -2.0357  -2.0336  -2.0275  -2.0246
    -2.0243  -2.0006  -2.0004  -1.9892  -1.9870  -1.9827  -1.9822  -1.9440
    -1.9102  -1.9098  -1.8745  -1.8572  -1.8570  -1.8463  -1.8459  -1.8227
    -1.8223  -1.8078  -1.8075  -1.8061  -1.8060  -1.8030  -1.8026  -1.7704
    -1.7703  -1.7701  -1.7240  -1.7237  -1.6840  -1.6837  -1.6366  -1.6365
    -1.6242  -1.6017  -1.5964  -1.5942  -1.5774  -1.5758  -1.5584  -1.5580
    -1.5534  -1.5529  -1.5515  -1.5513  -1.5507  -1.5482  -1.5281  -1.5280
    -1.5175  -1.5002  -1.4811  -1.4811  -1.4548  -1.4547  -1.4518  -1.4515
    -1.4484  -1.4457  -1.4239  -1.4235  -1.4089  -1.4082  -1.3957  -1.3855
    -1.3719  -1.3716  -1.3408  -1.3405  -1.3326  -1.3324  -1.2972  -1.2967
    -1.2887  -1.2884  -1.2799  -1.2796  -1.2707  -1.2581  -1.2578  -1.2459
    -1.2393  -1.2390  -1.2259  -1.2256  -1.2252  -1.2249  -1.2106  -1.2003
    -1.1995  -1.1922  -1.1921  -1.1801  -1.1754  -1.1752  -1.1685  -1.1293
    -1.1270  -1.1219  -1.1203  -1.1197  -1.1182  -1.0798  -1.0633  -1.0627
    -1.0624  -1.0623  -1.0578  -1.0576  -1.0527  -1.0397  -1.0376  -1.0009
    -1.0006  -0.9936  -0.9936  -0.9707  -0.9705  -0.9607  -0.9310  -0.9233
    -0.8960  -0.8957  -0.8678  -0.8677  -0.8651  -0.8638  -0.8632  -0.8592
    -0.8558  -0.8537  -0.8491  -0.8489  -0.8170  -0.8167  -0.7990  -0.7982
    -0.7933  -0.7930  -0.7916  -0.7915  -0.7727  -0.4958  -0.4871  -0.4315
    -0.4298  -0.3913  -0.2304  -0.1655  -0.1651  -0.1343   0.1537   0.1540
     0.4831   0.4848   0.5828   0.5829   0.6238   0.6246   0.7671   0.7679
     0.8916   0.8932   0.9790   1.5789   1.5969   1.5977   1.6369   1.6421
     1.6836   1.6885   1.7668   1.7675   1.9745   1.9748   2.2080   2.2888
     2.2907   2.3055   2.6836   2.6880   2.7601   2.7612   2.7672   2.7677
     2.9189   2.9197   2.9634   3.0617   3.0636   3.2935   3.2979   3.4293
     3.4563   3.4569   3.7268   3.7285   3.8397   3.8598   3.8599   3.9072
     3.9394   4.0465   4.0475   4.2839   4.2842   4.3689   4.3727   4.4965
     4.5002   4.5144   4.5227   4.6091   4.7686   5.3147   5.3221   5.4255
     5.4289   5.4517   5.6078   5.6089   5.6562   5.6873   5.7216   5.7241
     5.7375   5.7771   5.7777   5.8210   5.8907   6.0198   6.0701   6.0892
     6.1049   6.1105   6.1182   6.1198   6.1300   6.1647   6.1834   6.2465

          k =-0.2500-0.2500 0.0833 (167653 PWs)   bands (ev):

   -19.2697  -7.0851  -6.8466  -6.3181  -6.3178  -5.8884  -5.4793  -5.3862
    -5.3859  -5.1901  -5.1901  -5.0724  -5.0718  -4.9937  -4.9707  -4.8977
    -4.8128  -4.8091  -4.7701  -4.7700  -4.6091  -4.5925  -4.5914  -4.5912
    -4.5843  -4.5285  -4.5285  -4.5167  -4.5164  -4.4796  -4.4670  -4.4666
    -4.4248  -4.4248  -4.3913  -4.3901  -4.3382  -4.3378  -4.3270  -4.3261
    -4.3208  -4.3076  -4.3075  -4.2662  -4.2482  -4.2481  -4.2412  -4.2410
    -4.2088  -4.1590  -4.1440  -4.1438  -4.1399  -4.1397  -4.1321  -4.1265
    -4.1261  -4.1260  -4.0610  -4.0605  -4.0111  -4.0107  -3.9985  -3.9725
    -3.9724  -3.9524  -3.9501  -3.9495  -3.9451  -3.9422  -3.8933  -3.8933
    -3.8803  -3.8800  -3.7749  -3.7746  -3.7687  -3.7683  -3.7313  -3.7217
    -3.7080  -3.6780  -3.6779  -3.6494  -3.6491  -3.6274  -3.6272  -3.6137
    -3.6134  -3.5588  -3.5587  -3.5401  -3.5247  -3.5131  -3.5118  -3.5117
    -3.5101  -3.4831  -3.4829  -3.4467  -3.4466  -3.4240  -3.4238  -3.3910
    -3.3907  -3.3725  -3.3451  -3.3451  -3.3078  -3.3076  -3.2918  -3.2722
    -3.2648  -3.2641  -3.2500  -3.2498  -3.2449  -3.2448  -3.2059  -3.1961
    -3.1552  -3.1552  -3.1474  -3.1378  -3.1372  -3.1357  -3.1113  -3.1113
    -3.0901  -3.0895  -3.0892  -3.0624  -3.0624  -3.0549  -3.0520  -3.0520
    -3.0160  -3.0115  -2.9764  -2.9761  -2.9753  -2.9724  -2.9723  -2.8933
    -2.8832  -2.8788  -2.8785  -2.8772  -2.8770  -2.8721  -2.8720  -2.8718
    -2.8716  -2.8621  -2.8543  -2.8371  -2.8346  -2.8340  -2.8336  -2.8190
    -2.8143  -2.7762  -2.7755  -2.7752  -2.7713  -2.7709  -2.7528  -2.7526
    -2.7437  -2.7437  -2.7415  -2.6818  -2.6818  -2.6765  -2.6764  -2.6714
    -2.6712  -2.6431  -2.5841  -2.5828  -2.5825  -2.5807  -2.5693  -2.5670
    -2.5622  -2.5513  -2.5511  -2.5143  -2.5138  -2.5052  -2.5047  -2.5042
    -2.5040  -2.4645  -2.4643  -2.4545  -2.4545  -2.4530  -2.4528  -2.4109
    -2.3949  -2.3894  -2.3360  -2.3358  -2.3172  -2.3157  -2.3104  -2.3103
    -2.2618  -2.2612  -2.2380  -2.2215  -2.2073  -2.2067  -2.2064  -2.1845
    -2.1844  -2.1747  -2.1582  -2.1169  -2.1165  -2.1031  -2.1028  -2.1027
    -2.0915  -2.0914  -2.0760  -2.0758  -2.0750  -2.0715  -2.0665  -2.0665
    -2.0658  -2.0538  -2.0536  -2.0359  -2.0357  -2.0336  -2.0275  -2.0246
    -2.0244  -2.0006  -2.0004  -1.9892  -1.9870  -1.9827  -1.9822  -1.9440
    -1.9102  -1.9098  -1.8745  -1.8572  -1.8570  -1.8463  -1.8459  -1.8227
    -1.8223  -1.8078  -1.8075  -1.8061  -1.8060  -1.8030  -1.8026  -1.7704
    -1.7703  -1.7701  -1.7240  -1.7238  -1.6840  -1.6837  -1.6366  -1.6365
    -1.6242  -1.6017  -1.5964  -1.5941  -1.5774  -1.5758  -1.5584  -1.5580
    -1.5534  -1.5530  -1.5515  -1.5513  -1.5507  -1.5482  -1.5281  -1.5280
    -1.5175  -1.5002  -1.4811  -1.4811  -1.4548  -1.4547  -1.4518  -1.4515
    -1.4484  -1.4457  -1.4239  -1.4235  -1.4089  -1.4082  -1.3957  -1.3854
    -1.3719  -1.3716  -1.3408  -1.3405  -1.3326  -1.3324  -1.2972  -1.2967
    -1.2887  -1.2884  -1.2799  -1.2796  -1.2707  -1.2581  -1.2578  -1.2459
    -1.2393  -1.2390  -1.2259  -1.2256  -1.2252  -1.2249  -1.2106  -1.2003
    -1.1994  -1.1922  -1.1921  -1.1801  -1.1754  -1.1752  -1.1685  -1.1293
    -1.1270  -1.1219  -1.1203  -1.1197  -1.1182  -1.0798  -1.0633  -1.0627
    -1.0624  -1.0623  -1.0578  -1.0576  -1.0527  -1.0397  -1.0376  -1.0009
    -1.0006  -0.9936  -0.9936  -0.9707  -0.9705  -0.9607  -0.9310  -0.9233
    -0.8960  -0.8957  -0.8678  -0.8677  -0.8651  -0.8638  -0.8632  -0.8592
    -0.8558  -0.8537  -0.8491  -0.8489  -0.8170  -0.8167  -0.7990  -0.7982
    -0.7933  -0.7930  -0.7916  -0.7915  -0.7727  -0.4958  -0.4871  -0.4315
    -0.4298  -0.3913  -0.2304  -0.1655  -0.1651  -0.1343   0.1537   0.1540
     0.4831   0.4848   0.5828   0.5829   0.6238   0.6246   0.7671   0.7679
     0.8916   0.8932   0.9790   1.5789   1.5969   1.5977   1.6369   1.6421
     1.6836   1.6885   1.7668   1.7675   1.9745   1.9748   2.2080   2.2888
     2.2907   2.3055   2.6836   2.6880   2.7601   2.7612   2.7672   2.7677
     2.9189   2.9197   2.9633   3.0616   3.0636   3.2935   3.2979   3.4293
     3.4563   3.4569   3.7268   3.7285   3.8397   3.8598   3.8599   3.9070
     3.9393   4.0465   4.0475   4.2839   4.2842   4.3689   4.3727   4.4965
     4.5002   4.5144   4.5227   4.6099   4.7717   5.3177   5.3220   5.4267
     5.4290   5.4479   5.6077   5.6089   5.6343   5.6932   5.7092   5.7241
     5.7271   5.7771   5.7777   5.8210   5.9040   6.0327   6.0598   6.0894
     6.1049   6.1117   6.1169   6.1199   6.1274   6.1284   6.1301   6.1870

          k =-0.2500 0.2500-0.0833 (167653 PWs)   bands (ev):

   -19.2697  -7.0851  -6.8466  -6.3182  -6.3178  -5.8884  -5.4793  -5.3863
    -5.3859  -5.1901  -5.1901  -5.0724  -5.0718  -4.9937  -4.9707  -4.8977
    -4.8128  -4.8091  -4.7701  -4.7700  -4.6091  -4.5925  -4.5915  -4.5911
    -4.5843  -4.5285  -4.5285  -4.5167  -4.5164  -4.4796  -4.4670  -4.4665
    -4.4248  -4.4247  -4.3913  -4.3901  -4.3382  -4.3377  -4.3270  -4.3261
    -4.3208  -4.3076  -4.3075  -4.2662  -4.2482  -4.2480  -4.2412  -4.2410
    -4.2088  -4.1590  -4.1441  -4.1437  -4.1399  -4.1396  -4.1321  -4.1265
    -4.1261  -4.1260  -4.0610  -4.0604  -4.0111  -4.0107  -3.9985  -3.9725
    -3.9724  -3.9524  -3.9501  -3.9495  -3.9451  -3.9422  -3.8933  -3.8933
    -3.8803  -3.8800  -3.7749  -3.7745  -3.7688  -3.7683  -3.7313  -3.7217
    -3.7080  -3.6780  -3.6779  -3.6494  -3.6491  -3.6275  -3.6272  -3.6138
    -3.6134  -3.5588  -3.5586  -3.5401  -3.5247  -3.5131  -3.5118  -3.5116
    -3.5101  -3.4831  -3.4829  -3.4467  -3.4466  -3.4240  -3.4237  -3.3910
    -3.3907  -3.3725  -3.3452  -3.3451  -3.3078  -3.3076  -3.2918  -3.2722
    -3.2648  -3.2641  -3.2500  -3.2498  -3.2449  -3.2447  -3.2059  -3.1961
    -3.1552  -3.1552  -3.1474  -3.1378  -3.1372  -3.1357  -3.1113  -3.1113
    -3.0900  -3.0896  -3.0891  -3.0624  -3.0624  -3.0549  -3.0520  -3.0520
    -3.0160  -3.0115  -2.9764  -2.9760  -2.9753  -2.9724  -2.9723  -2.8933
    -2.8832  -2.8789  -2.8785  -2.8772  -2.8770  -2.8721  -2.8719  -2.8719
    -2.8715  -2.8621  -2.8543  -2.8371  -2.8346  -2.8340  -2.8336  -2.8190
    -2.8143  -2.7762  -2.7755  -2.7752  -2.7713  -2.7709  -2.7529  -2.7526
    -2.7437  -2.7437  -2.7415  -2.6818  -2.6818  -2.6765  -2.6764  -2.6714
    -2.6712  -2.6431  -2.5840  -2.5828  -2.5824  -2.5808  -2.5693  -2.5670
    -2.5622  -2.5513  -2.5511  -2.5143  -2.5137  -2.5053  -2.5047  -2.5043
    -2.5040  -2.4646  -2.4643  -2.4545  -2.4545  -2.4530  -2.4527  -2.4109
    -2.3949  -2.3894  -2.3360  -2.3358  -2.3172  -2.3157  -2.3104  -2.3103
    -2.2618  -2.2612  -2.2380  -2.2215  -2.2073  -2.2067  -2.2064  -2.1845
    -2.1844  -2.1747  -2.1582  -2.1170  -2.1165  -2.1032  -2.1028  -2.1026
    -2.0916  -2.0914  -2.0760  -2.0758  -2.0751  -2.0715  -2.0665  -2.0665
    -2.0657  -2.0538  -2.0535  -2.0359  -2.0357  -2.0336  -2.0275  -2.0246
    -2.0243  -2.0006  -2.0003  -1.9892  -1.9870  -1.9827  -1.9822  -1.9440
    -1.9102  -1.9097  -1.8745  -1.8572  -1.8570  -1.8463  -1.8459  -1.8227
    -1.8223  -1.8078  -1.8074  -1.8061  -1.8060  -1.8030  -1.8026  -1.7704
    -1.7703  -1.7700  -1.7240  -1.7237  -1.6840  -1.6837  -1.6366  -1.6365
    -1.6242  -1.6017  -1.5964  -1.5941  -1.5774  -1.5758  -1.5585  -1.5580
    -1.5535  -1.5529  -1.5515  -1.5513  -1.5507  -1.5482  -1.5281  -1.5280
    -1.5175  -1.5002  -1.4811  -1.4811  -1.4548  -1.4546  -1.4519  -1.4514
    -1.4484  -1.4457  -1.4239  -1.4235  -1.4090  -1.4082  -1.3957  -1.3854
    -1.3719  -1.3715  -1.3408  -1.3405  -1.3326  -1.3324  -1.2972  -1.2967
    -1.2887  -1.2883  -1.2799  -1.2795  -1.2707  -1.2581  -1.2578  -1.2459
    -1.2393  -1.2390  -1.2259  -1.2256  -1.2253  -1.2249  -1.2106  -1.2003
    -1.1994  -1.1922  -1.1921  -1.1801  -1.1755  -1.1752  -1.1685  -1.1293
    -1.1270  -1.1219  -1.1203  -1.1197  -1.1182  -1.0798  -1.0634  -1.0626
    -1.0624  -1.0623  -1.0578  -1.0576  -1.0527  -1.0397  -1.0376  -1.0010
    -1.0005  -0.9936  -0.9936  -0.9707  -0.9705  -0.9607  -0.9310  -0.9233
    -0.8960  -0.8956  -0.8678  -0.8677  -0.8651  -0.8638  -0.8632  -0.8592
    -0.8558  -0.8537  -0.8491  -0.8489  -0.8170  -0.8167  -0.7990  -0.7981
    -0.7933  -0.7930  -0.7917  -0.7915  -0.7727  -0.4958  -0.4871  -0.4316
    -0.4297  -0.3913  -0.2304  -0.1655  -0.1651  -0.1343   0.1537   0.1540
     0.4830   0.4849   0.5828   0.5829   0.6238   0.6247   0.7670   0.7680
     0.8915   0.8932   0.9790   1.5789   1.5969   1.5977   1.6369   1.6421
     1.6833   1.6888   1.7667   1.7676   1.9745   1.9749   2.2080   2.2887
     2.2908   2.3055   2.6834   2.6882   2.7601   2.7612   2.7672   2.7677
     2.9189   2.9197   2.9633   3.0614   3.0639   3.2935   3.2978   3.4293
     3.4562   3.4570   3.7265   3.7287   3.8400   3.8598   3.8599   3.9063
     3.9399   4.0464   4.0476   4.2839   4.2842   4.3688   4.3728   4.4966
     4.5001   4.5149   4.5230   4.6103   4.7707   5.3162   5.3231   5.4265
     5.4293   5.4493   5.6075   5.6091   5.6308   5.6918   5.7103   5.7241
     5.7271   5.7770   5.7778   5.8210   5.9050   6.0337   6.0621   6.0895
     6.1049   6.1106   6.1166   6.1200   6.1284   6.1299   6.1324   6.1828

          k = 0.2500-0.2500-0.0833 (167653 PWs)   bands (ev):

   -19.2697  -7.0851  -6.8466  -6.3182  -6.3178  -5.8884  -5.4793  -5.3863
    -5.3859  -5.1901  -5.1901  -5.0724  -5.0718  -4.9937  -4.9707  -4.8977
    -4.8128  -4.8091  -4.7701  -4.7700  -4.6091  -4.5925  -4.5915  -4.5911
    -4.5843  -4.5285  -4.5285  -4.5167  -4.5164  -4.4796  -4.4670  -4.4665
    -4.4248  -4.4247  -4.3913  -4.3901  -4.3382  -4.3377  -4.3270  -4.3261
    -4.3208  -4.3076  -4.3075  -4.2662  -4.2482  -4.2480  -4.2412  -4.2410
    -4.2088  -4.1590  -4.1441  -4.1437  -4.1399  -4.1396  -4.1321  -4.1265
    -4.1261  -4.1260  -4.0610  -4.0604  -4.0111  -4.0107  -3.9985  -3.9725
    -3.9724  -3.9524  -3.9501  -3.9495  -3.9451  -3.9422  -3.8933  -3.8933
    -3.8803  -3.8800  -3.7749  -3.7745  -3.7688  -3.7683  -3.7313  -3.7217
    -3.7080  -3.6780  -3.6779  -3.6494  -3.6491  -3.6275  -3.6272  -3.6138
    -3.6134  -3.5588  -3.5586  -3.5401  -3.5247  -3.5131  -3.5118  -3.5116
    -3.5101  -3.4831  -3.4829  -3.4467  -3.4466  -3.4240  -3.4237  -3.3910
    -3.3907  -3.3725  -3.3452  -3.3451  -3.3078  -3.3076  -3.2918  -3.2722
    -3.2648  -3.2641  -3.2500  -3.2498  -3.2449  -3.2447  -3.2059  -3.1961
    -3.1552  -3.1552  -3.1474  -3.1378  -3.1372  -3.1357  -3.1113  -3.1113
    -3.0900  -3.0896  -3.0891  -3.0624  -3.0624  -3.0549  -3.0520  -3.0520
    -3.0160  -3.0115  -2.9764  -2.9760  -2.9753  -2.9724  -2.9723  -2.8933
    -2.8832  -2.8789  -2.8785  -2.8772  -2.8770  -2.8721  -2.8719  -2.8719
    -2.8715  -2.8621  -2.8543  -2.8371  -2.8346  -2.8340  -2.8336  -2.8190
    -2.8143  -2.7762  -2.7755  -2.7752  -2.7713  -2.7709  -2.7529  -2.7526
    -2.7437  -2.7437  -2.7415  -2.6818  -2.6818  -2.6765  -2.6764  -2.6714
    -2.6712  -2.6431  -2.5840  -2.5828  -2.5824  -2.5808  -2.5693  -2.5670
    -2.5622  -2.5513  -2.5511  -2.5143  -2.5137  -2.5053  -2.5047  -2.5043
    -2.5040  -2.4646  -2.4643  -2.4545  -2.4545  -2.4530  -2.4527  -2.4109
    -2.3949  -2.3894  -2.3360  -2.3358  -2.3172  -2.3157  -2.3104  -2.3103
    -2.2618  -2.2612  -2.2380  -2.2215  -2.2073  -2.2067  -2.2064  -2.1845
    -2.1844  -2.1747  -2.1582  -2.1170  -2.1165  -2.1032  -2.1028  -2.1026
    -2.0916  -2.0914  -2.0760  -2.0758  -2.0751  -2.0715  -2.0665  -2.0665
    -2.0657  -2.0538  -2.0535  -2.0359  -2.0357  -2.0336  -2.0275  -2.0246
    -2.0243  -2.0006  -2.0003  -1.9892  -1.9870  -1.9827  -1.9822  -1.9440
    -1.9102  -1.9097  -1.8745  -1.8572  -1.8570  -1.8463  -1.8459  -1.8227
    -1.8223  -1.8078  -1.8074  -1.8061  -1.8060  -1.8030  -1.8026  -1.7704
    -1.7703  -1.7700  -1.7240  -1.7237  -1.6840  -1.6837  -1.6366  -1.6365
    -1.6242  -1.6017  -1.5964  -1.5941  -1.5774  -1.5758  -1.5585  -1.5580
    -1.5535  -1.5529  -1.5515  -1.5513  -1.5507  -1.5482  -1.5281  -1.5280
    -1.5175  -1.5002  -1.4811  -1.4811  -1.4548  -1.4546  -1.4519  -1.4514
    -1.4484  -1.4457  -1.4239  -1.4235  -1.4090  -1.4082  -1.3957  -1.3854
    -1.3719  -1.3715  -1.3408  -1.3405  -1.3326  -1.3324  -1.2972  -1.2967
    -1.2887  -1.2883  -1.2799  -1.2795  -1.2707  -1.2581  -1.2578  -1.2459
    -1.2393  -1.2390  -1.2259  -1.2256  -1.2253  -1.2249  -1.2106  -1.2003
    -1.1994  -1.1922  -1.1921  -1.1801  -1.1755  -1.1752  -1.1685  -1.1293
    -1.1270  -1.1219  -1.1203  -1.1197  -1.1182  -1.0798  -1.0634  -1.0626
    -1.0624  -1.0623  -1.0578  -1.0576  -1.0527  -1.0397  -1.0376  -1.0010
    -1.0005  -0.9936  -0.9936  -0.9707  -0.9705  -0.9607  -0.9310  -0.9233
    -0.8960  -0.8956  -0.8678  -0.8677  -0.8651  -0.8638  -0.8632  -0.8592
    -0.8558  -0.8537  -0.8491  -0.8489  -0.8170  -0.8167  -0.7990  -0.7981
    -0.7933  -0.7930  -0.7917  -0.7915  -0.7727  -0.4958  -0.4871  -0.4316
    -0.4297  -0.3913  -0.2304  -0.1655  -0.1651  -0.1343   0.1537   0.1540
     0.4830   0.4849   0.5828   0.5829   0.6238   0.6247   0.7670   0.7680
     0.8915   0.8932   0.9790   1.5789   1.5969   1.5977   1.6369   1.6421
     1.6833   1.6888   1.7667   1.7676   1.9745   1.9749   2.2080   2.2887
     2.2908   2.3055   2.6834   2.6882   2.7601   2.7612   2.7672   2.7677
     2.9189   2.9197   2.9633   3.0614   3.0639   3.2935   3.2978   3.4293
     3.4562   3.4570   3.7265   3.7287   3.8400   3.8598   3.8599   3.9063
     3.9399   4.0464   4.0476   4.2839   4.2842   4.3688   4.3728   4.4966
     4.5001   4.5149   4.5230   4.6103   4.7707   5.3158   5.3230   5.4266
     5.4293   5.4508   5.6076   5.6091   5.6295   5.6894   5.7106   5.7239
     5.7267   5.7770   5.7778   5.8209   5.9099   6.0329   6.0629   6.0896
     6.1049   6.1109   6.1165   6.1200   6.1284   6.1299   6.1341   6.1820

          k =-0.2500 0.2500 0.2500 (167588 PWs)   bands (ev):

   -19.2697  -7.0851  -6.8466  -6.3182  -6.3178  -5.8884  -5.4793  -5.3863
    -5.3859  -5.1901  -5.1901  -5.0724  -5.0718  -4.9937  -4.9707  -4.8977
    -4.8128  -4.8091  -4.7701  -4.7700  -4.6091  -4.5925  -4.5915  -4.5911
    -4.5843  -4.5285  -4.5285  -4.5167  -4.5164  -4.4797  -4.4670  -4.4665
    -4.4248  -4.4247  -4.3913  -4.3901  -4.3382  -4.3377  -4.3270  -4.3261
    -4.3208  -4.3076  -4.3075  -4.2662  -4.2482  -4.2480  -4.2412  -4.2410
    -4.2088  -4.1590  -4.1441  -4.1437  -4.1399  -4.1396  -4.1321  -4.1265
    -4.1261  -4.1260  -4.0610  -4.0604  -4.0111  -4.0107  -3.9985  -3.9725
    -3.9723  -3.9524  -3.9500  -3.9495  -3.9451  -3.9422  -3.8933  -3.8933
    -3.8803  -3.8800  -3.7749  -3.7745  -3.7688  -3.7683  -3.7313  -3.7217
    -3.7080  -3.6780  -3.6779  -3.6494  -3.6491  -3.6275  -3.6272  -3.6138
    -3.6134  -3.5588  -3.5586  -3.5401  -3.5247  -3.5131  -3.5118  -3.5116
    -3.5101  -3.4831  -3.4829  -3.4466  -3.4466  -3.4240  -3.4237  -3.3910
    -3.3907  -3.3725  -3.3451  -3.3451  -3.3078  -3.3076  -3.2918  -3.2722
    -3.2648  -3.2641  -3.2500  -3.2498  -3.2449  -3.2447  -3.2059  -3.1961
    -3.1552  -3.1552  -3.1474  -3.1378  -3.1372  -3.1357  -3.1113  -3.1113
    -3.0900  -3.0896  -3.0891  -3.0624  -3.0624  -3.0549  -3.0520  -3.0520
    -3.0160  -3.0115  -2.9764  -2.9760  -2.9753  -2.9724  -2.9723  -2.8933
    -2.8832  -2.8789  -2.8785  -2.8772  -2.8770  -2.8721  -2.8719  -2.8719
    -2.8715  -2.8621  -2.8543  -2.8372  -2.8346  -2.8340  -2.8336  -2.8190
    -2.8143  -2.7762  -2.7755  -2.7752  -2.7713  -2.7708  -2.7528  -2.7526
    -2.7437  -2.7437  -2.7415  -2.6818  -2.6818  -2.6765  -2.6764  -2.6714
    -2.6712  -2.6431  -2.5840  -2.5828  -2.5824  -2.5808  -2.5693  -2.5670
    -2.5622  -2.5513  -2.5511  -2.5143  -2.5137  -2.5053  -2.5047  -2.5043
    -2.5040  -2.4646  -2.4643  -2.4545  -2.4545  -2.4530  -2.4527  -2.4109
    -2.3948  -2.3894  -2.3360  -2.3358  -2.3173  -2.3157  -2.3104  -2.3103
    -2.2618  -2.2612  -2.2380  -2.2215  -2.2073  -2.2067  -2.2064  -2.1845
    -2.1844  -2.1747  -2.1582  -2.1170  -2.1165  -2.1032  -2.1028  -2.1026
    -2.0916  -2.0914  -2.0760  -2.0758  -2.0751  -2.0715  -2.0665  -2.0665
    -2.0657  -2.0538  -2.0535  -2.0359  -2.0357  -2.0336  -2.0275  -2.0246
    -2.0243  -2.0006  -2.0003  -1.9892  -1.9870  -1.9827  -1.9822  -1.9440
    -1.9102  -1.9097  -1.8745  -1.8572  -1.8570  -1.8463  -1.8459  -1.8227
    -1.8223  -1.8078  -1.8074  -1.8061  -1.8060  -1.8030  -1.8025  -1.7704
    -1.7703  -1.7700  -1.7240  -1.7237  -1.6840  -1.6837  -1.6366  -1.6365
    -1.6242  -1.6017  -1.5964  -1.5941  -1.5774  -1.5758  -1.5585  -1.5580
    -1.5535  -1.5529  -1.5515  -1.5513  -1.5507  -1.5482  -1.5281  -1.5280
    -1.5175  -1.5002  -1.4811  -1.4811  -1.4548  -1.4546  -1.4519  -1.4514
    -1.4484  -1.4457  -1.4239  -1.4235  -1.4090  -1.4082  -1.3957  -1.3855
    -1.3719  -1.3715  -1.3408  -1.3405  -1.3326  -1.3324  -1.2972  -1.2967
    -1.2887  -1.2883  -1.2799  -1.2795  -1.2707  -1.2581  -1.2578  -1.2459
    -1.2393  -1.2390  -1.2259  -1.2256  -1.2253  -1.2249  -1.2106  -1.2003
    -1.1995  -1.1922  -1.1921  -1.1801  -1.1755  -1.1752  -1.1685  -1.1293
    -1.1270  -1.1219  -1.1203  -1.1197  -1.1182  -1.0798  -1.0634  -1.0626
    -1.0624  -1.0622  -1.0578  -1.0576  -1.0527  -1.0397  -1.0376  -1.0010
    -1.0005  -0.9936  -0.9936  -0.9707  -0.9705  -0.9607  -0.9310  -0.9233
    -0.8960  -0.8956  -0.8678  -0.8677  -0.8651  -0.8638  -0.8632  -0.8592
    -0.8558  -0.8537  -0.8491  -0.8489  -0.8170  -0.8167  -0.7990  -0.7981
    -0.7933  -0.7929  -0.7917  -0.7914  -0.7727  -0.4958  -0.4871  -0.4316
    -0.4297  -0.3913  -0.2304  -0.1655  -0.1651  -0.1343   0.1537   0.1540
     0.4830   0.4849   0.5828   0.5829   0.6238   0.6247   0.7670   0.7680
     0.8916   0.8932   0.9790   1.5789   1.5969   1.5977   1.6369   1.6421
     1.6833   1.6888   1.7667   1.7676   1.9745   1.9749   2.2080   2.2887
     2.2908   2.3055   2.6834   2.6882   2.7601   2.7612   2.7672   2.7677
     2.9189   2.9197   2.9633   3.0614   3.0639   3.2935   3.2978   3.4293
     3.4562   3.4570   3.7265   3.7287   3.8400   3.8598   3.8599   3.9065
     3.9400   4.0465   4.0476   4.2838   4.2842   4.3688   4.3728   4.4966
     4.5001   4.5148   4.5230   4.6096   4.7675   5.3136   5.3231   5.4251
     5.4293   5.4516   5.6077   5.6091   5.6550   5.6886   5.7214   5.7241
     5.7378   5.7770   5.7778   5.8209   5.8901   6.0189   6.0728   6.0891
     6.1049   6.1107   6.1182   6.1200   6.1300   6.1634   6.1844   6.2457

     the Fermi energy is     0.8418 ev

!    total energy              =   -7425.28726449 Ry
     Harris-Foulkes estimate   =   -7425.28726448 Ry
     estimated scf accuracy    <          3.2E-09 Ry

     The total energy is the sum of the following terms:

     one-electron contribution =  -48263.03553165 Ry
     hartree contribution      =   24681.71960631 Ry
     xc contribution           =   -3604.19314237 Ry
     ewald contribution        =   19760.22474785 Ry
     smearing contrib. (-TS)   =      -0.00294463 Ry

     convergence has been achieved in  29 iterations

     Writing output data file 5072110.save

     init_run     :    121.86s CPU    131.08s WALL (       1 calls)
     electrons    :   8259.50s CPU   8793.68s WALL (       1 calls)

     Called by init_run:
     wfcinit      :     81.06s CPU     89.17s WALL (       1 calls)
     potinit      :      8.00s CPU      8.52s WALL (       1 calls)

     Called by electrons:
     c_bands      :   6356.09s CPU   6786.41s WALL (      30 calls)
     sum_band     :   1199.74s CPU   1282.15s WALL (      30 calls)
     v_of_rho     :    156.32s CPU    170.09s WALL (      30 calls)
     newd         :    561.26s CPU    568.46s WALL (      30 calls)
     mix_rho      :      6.11s CPU      6.54s WALL (      30 calls)
     vdW_energy   :     13.77s CPU     15.61s WALL (      30 calls)
     vdW_ffts     :     80.08s CPU     86.75s WALL (      60 calls)
     vdW_v        :     18.00s CPU     19.00s WALL (      30 calls)

     Called by c_bands:
     init_us_2    :     20.15s CPU     20.58s WALL (     366 calls)
     cegterg      :   6279.15s CPU   6708.08s WALL (     180 calls)

     Called by *egterg:
     h_psi        :   2750.42s CPU   3139.33s WALL (     915 calls)
     s_psi        :    404.82s CPU    407.12s WALL (     915 calls)
     g_psi        :      5.00s CPU      4.97s WALL (     729 calls)
     cdiaghg      :   1574.86s CPU   1578.78s WALL (     903 calls)

     Called by h_psi:
     add_vuspsi   :    403.69s CPU    406.41s WALL (     915 calls)

     General routines
     calbec       :    623.37s CPU    625.90s WALL (    1095 calls)
     fft          :    174.69s CPU    186.06s WALL (    1980 calls)
     ffts         :      2.27s CPU      2.56s WALL (      60 calls)
     fftw         :   1823.80s CPU   2194.57s WALL (  480884 calls)
     interpolate  :      6.46s CPU      7.21s WALL (      60 calls)
     davcio       :      0.00s CPU      0.28s WALL (       6 calls)

     Parallel routines
     fft_scatter  :   1336.74s CPU   1597.00s WALL (  482924 calls)

     PWSCF        :     2h19m CPU        2h29m WALL


   This run was terminated on:  18: 4:48   3Jul2015            

=------------------------------------------------------------------------------=
   JOB DONE.
=------------------------------------------------------------------------------=
