Setting SGE environment for SCC

     Program PWSCF v.5.1.2 starts on 24Aug2015 at 13:37:43 

     This program is part of the open-source Quantum ESPRESSO suite
     for quantum simulation of materials; please cite
         "P. Giannozzi et al., J. Phys.:Condens. Matter 21 395502 (2009);
          URL http://www.quantum-espresso.org", 
     in publications or presentations arising from this work. More details at
     http://www.quantum-espresso.org/quote

     Parallel version (MPI), running on    32 processors
     R & G space division:  proc/nbgrp/npool/nimage =      32
     Reading input from hollow.O1.Au5859.d.2.7.phi.45.psi.90.in
Warning: card &IONS ignored
Warning: card / ignored
Warning: card &CELL ignored
Warning: card / ignored

     Current dimensions of program PWSCF are:
     Max number of different atomic species (ntypx) = 10
     Max number of k-points (npk) =  40000
     Max angular momentum in pseudopotentials (lmaxx) =  3

     IMPORTANT: XC functional enforced from input :
     Exchange-correlation      = VDW-DF ( 1  4  4  0 1 0)
     Any further DFT definition will be discarded
     Please, verify this is what you really want


     Subspace diagonalization in iterative solution of the eigenvalue problem:
     a serial algorithm will be used


     Parallelization info
     --------------------
     sticks:   dense  smooth     PW     G-vecs:    dense   smooth      PW
     Min         578     289     74               118518    41891    5486
     Max         579     290     75               118533    41932    5497
     Sum       18505    9265   2385              3792731  1341081  175711


     Title: 
     hollow.O1.Au5859.d.2.7.phi.45.psi.90                                       


     bravais-lattice index     =            8
     lattice parameter (alat)  =      24.1233  a.u.
     unit-cell volume          =   28076.2361 (a.u.)^3
     number of atoms/cell      =           75
     number of atomic types    =            3
     number of electrons       =       800.00
     number of Kohn-Sham states=          480
     kinetic-energy cutoff     =      50.0000  Ry
     charge density cutoff     =     400.0000  Ry
     convergence threshold     =      1.0E-08
     mixing beta               =       0.7000
     number of iterations used =            8  plain     mixing
     Exchange-correlation      = VDW-DF ( 1  4  4  0 1 0)

     celldm(1)=  24.123277  celldm(2)=   1.000000  celldm(3)=   2.000000
     celldm(4)=   0.000000  celldm(5)=   0.000000  celldm(6)=   0.000000

     crystal axes: (cart. coord. in units of alat)
               a(1) = (   1.000000   0.000000   0.000000 )  
               a(2) = (   0.000000   1.000000   0.000000 )  
               a(3) = (   0.000000   0.000000   2.000000 )  

     reciprocal axes: (cart. coord. in units 2 pi/alat)
               b(1) = (  1.000000  0.000000  0.000000 )  
               b(2) = (  0.000000  1.000000  0.000000 )  
               b(3) = (  0.000000  0.000000  0.500000 )  


     PseudoPot. # 1 for Au read from file:
     /home/scc/andrejb/qe/pseudo/Au.pbe-nd-van.UPF
     MD5 check sum: 458681b50f36d87ef23c61b04bba420a
     Pseudo is Ultrasoft + core correction, Zval = 11.0
     Generated by new atomic code, or converted to UPF format
     Using radial grid of  985 points,  3 beta functions with: 
                l(1) =   1
                l(2) =   2
                l(3) =   2
     Q(r) pseudized with  8 coefficients,  rinner =    1.100   1.100   1.100
                                                       1.100   1.100

     PseudoPot. # 2 for H  read from file:
     /home/scc/andrejb/qe/pseudo/H.pbe-van_ak.UPF
     MD5 check sum: 403db7282739603aa925980fa9b8608d
     Pseudo is Ultrasoft, Zval =  1.0
     Generated by new atomic code, or converted to UPF format
     Using radial grid of  615 points,  1 beta functions with: 
                l(1) =   0
     Q(r) pseudized with  8 coefficients,  rinner =    0.800

     PseudoPot. # 3 for O  read from file:
     /home/scc/andrejb/qe/pseudo/O.pbe-van_ak.UPF
     MD5 check sum: 4b8c549914a63cae506c6ff22b5af4fe
     Pseudo is Ultrasoft, Zval =  6.0
     Generated by new atomic code, or converted to UPF format
     Using radial grid of  737 points,  4 beta functions with: 
                l(1) =   0
                l(2) =   0
                l(3) =   1
                l(4) =   1
     Q(r) pseudized with  8 coefficients,  rinner =    0.800   0.800   0.800


     vdW kernel table read from file vdW_kernel_table
     MD5 check sum: 48e77a2e26edf626eeb0eaa751ad5cac

     atomic species   valence    mass     pseudopotential
        Au            11.00   196.96657     Au( 1.00)
        H              1.00     1.01000     H ( 1.00)
        O              6.00    16.00000     O ( 1.00)

     No symmetry found



   Cartesian axes

     site n.     atom                  positions (alat units)
         1           O   tau(   1) = (   0.1666051   0.1666105   0.7108218  )
         2           H   tau(   2) = (   0.1610146   0.1211166   0.6498344  )
         3           H   tau(   3) = (   0.1720135   0.1187528   0.7699726  )
         4           Au  tau(   4) = (   0.0000000   0.0000000   0.0000000  )
         5           Au  tau(   5) = (   0.3332217   0.0000000   0.0000000  )
         6           Au  tau(   6) = (   0.6664434   0.0000000   0.0000000  )
         7           Au  tau(   7) = (   0.1666109   0.1666109   0.0000000  )
         8           Au  tau(   8) = (   0.4998326   0.1666109   0.0000000  )
         9           Au  tau(   9) = (   0.8330542   0.1666109   0.0000000  )
        10           Au  tau(  10) = (   0.0000000   0.3332217   0.0000000  )
        11           Au  tau(  11) = (   0.3332217   0.3332217   0.0000000  )
        12           Au  tau(  12) = (   0.6664434   0.3332217   0.0000000  )
        13           Au  tau(  13) = (   0.1666109   0.4998326   0.0000000  )
        14           Au  tau(  14) = (   0.4998326   0.4998326   0.0000000  )
        15           Au  tau(  15) = (   0.8330542   0.4998326   0.0000000  )
        16           Au  tau(  16) = (   0.0000000   0.6664434   0.0000000  )
        17           Au  tau(  17) = (   0.3332217   0.6664434   0.0000000  )
        18           Au  tau(  18) = (   0.6664434   0.6664434   0.0000000  )
        19           Au  tau(  19) = (   0.1666109   0.8330542   0.0000000  )
        20           Au  tau(  20) = (   0.4998326   0.8330542   0.0000000  )
        21           Au  tau(  21) = (   0.8330542   0.8330542   0.0000000  )
        22           Au  tau(  22) = (   0.1666109   0.0000000   0.1666109  )
        23           Au  tau(  23) = (   0.4998326   0.0000000   0.1666109  )
        24           Au  tau(  24) = (   0.8330542   0.0000000   0.1666109  )
        25           Au  tau(  25) = (   0.0000000   0.1666109   0.1666109  )
        26           Au  tau(  26) = (   0.3332217   0.1666109   0.1666109  )
        27           Au  tau(  27) = (   0.6664434   0.1666109   0.1666109  )
        28           Au  tau(  28) = (   0.1666109   0.3332217   0.1666109  )
        29           Au  tau(  29) = (   0.4998326   0.3332217   0.1666109  )
        30           Au  tau(  30) = (   0.8330542   0.3332217   0.1666109  )
        31           Au  tau(  31) = (   0.0000000   0.4998326   0.1666109  )
        32           Au  tau(  32) = (   0.3332217   0.4998326   0.1666109  )
        33           Au  tau(  33) = (   0.6664434   0.4998326   0.1666109  )
        34           Au  tau(  34) = (   0.1666109   0.6664434   0.1666109  )
        35           Au  tau(  35) = (   0.4998326   0.6664434   0.1666109  )
        36           Au  tau(  36) = (   0.8330542   0.6664434   0.1666109  )
        37           Au  tau(  37) = (   0.0000000   0.8330542   0.1666109  )
        38           Au  tau(  38) = (   0.3332217   0.8330542   0.1666109  )
        39           Au  tau(  39) = (   0.6664434   0.8330542   0.1666109  )
        40           Au  tau(  40) = (  -0.0000182  -0.0000182   0.3335478  )
        41           Au  tau(  41) = (   0.3332215  -0.0000181   0.3335473  )
        42           Au  tau(  42) = (   0.6664447  -0.0000183   0.3335481  )
        43           Au  tau(  43) = (  -0.0000181   0.3332215   0.3335473  )
        44           Au  tau(  44) = (   0.3332215   0.3332215   0.3335468  )
        45           Au  tau(  45) = (   0.6664445   0.3332215   0.3335477  )
        46           Au  tau(  46) = (  -0.0000183   0.6664447   0.3335481  )
        47           Au  tau(  47) = (   0.3332215   0.6664445   0.3335477  )
        48           Au  tau(  48) = (   0.6664446   0.6664446   0.3335486  )
        49           Au  tau(  49) = (   0.1666097   0.1666097   0.3335483  )
        50           Au  tau(  50) = (   0.4998320   0.1666098   0.3335477  )
        51           Au  tau(  51) = (   0.8330732   0.1666096   0.3335480  )
        52           Au  tau(  52) = (   0.1666098   0.4998320   0.3335477  )
        53           Au  tau(  53) = (   0.4998322   0.4998322   0.3335470  )
        54           Au  tau(  54) = (   0.8330731   0.4998322   0.3335474  )
        55           Au  tau(  55) = (   0.1666096   0.8330732   0.3335480  )
        56           Au  tau(  56) = (   0.4998322   0.8330731   0.3335474  )
        57           Au  tau(  57) = (   0.8330731   0.8330731   0.3335478  )
        58           Au  tau(  58) = (   0.1666104  -0.0000111   0.4993095  )
        59           Au  tau(  59) = (   0.4998323  -0.0000112   0.4993099  )
        60           Au  tau(  60) = (   0.8330660  -0.0000111   0.4993009  )
        61           Au  tau(  61) = (  -0.0000111   0.1666104   0.4993095  )
        62           Au  tau(  62) = (   0.3332213   0.1666106   0.4993185  )
        63           Au  tau(  63) = (   0.6664437   0.1666106   0.4993187  )
        64           Au  tau(  64) = (   0.1666106   0.3332213   0.4993185  )
        65           Au  tau(  65) = (   0.4998324   0.3332216   0.4993185  )
        66           Au  tau(  66) = (   0.8330658   0.3332215   0.4993102  )
        67           Au  tau(  67) = (  -0.0000112   0.4998323   0.4993099  )
        68           Au  tau(  68) = (   0.3332216   0.4998324   0.4993185  )
        69           Au  tau(  69) = (   0.6664437   0.4998325   0.4993187  )
        70           Au  tau(  70) = (   0.1666106   0.6664437   0.4993187  )
        71           Au  tau(  71) = (   0.4998325   0.6664437   0.4993187  )
        72           Au  tau(  72) = (   0.8330658   0.6664438   0.4993102  )
        73           Au  tau(  73) = (  -0.0000111   0.8330660   0.4993009  )
        74           Au  tau(  74) = (   0.3332215   0.8330658   0.4993102  )
        75           Au  tau(  75) = (   0.6664438   0.8330658   0.4993102  )

     number of k points=     6  Marzari-Vanderbilt smearing, width (Ry)=  0.0200
                       cart. coord. in units 2pi/alat
        k(    1) = (   0.2500000   0.2500000   0.0833333), wk =   0.3333333
        k(    2) = (   0.2500000   0.2500000  -0.2500000), wk =   0.3333333
        k(    3) = (  -0.2500000  -0.2500000   0.0833333), wk =   0.3333333
        k(    4) = (  -0.2500000   0.2500000  -0.0833333), wk =   0.3333333
        k(    5) = (   0.2500000  -0.2500000  -0.0833333), wk =   0.3333333
        k(    6) = (  -0.2500000   0.2500000   0.2500000), wk =   0.3333333

     Dense  grid:  3792731 G-vectors     FFT dimensions: ( 160, 160, 320)

     Smooth grid:  1341081 G-vectors     FFT dimensions: ( 120, 120, 225)

     Largest allocated arrays     est. size (Mb)     dimensions
        Kohn-Sham Wavefunctions        38.58 Mb     (    5267,  480)
        NL pseudopotentials            76.03 Mb     (    5267,  946)
        Each V/rho on FFT grid          3.91 Mb     (  256000)
        Each G-vector array             0.90 Mb     (  118520)
        G-vector shells                 0.08 Mb     (   10286)
     Largest temporary arrays     est. size (Mb)     dimensions
        Auxiliary wavefunctions       154.31 Mb     (    5267, 1920)
        Each subspace H/S matrix       56.25 Mb     (    1920, 1920)
        Each <psi_i|beta_j> matrix      6.93 Mb     (     946,  480)
        Arrays for rho mixing          31.25 Mb     (  256000,    8)

     Initial potential from superposition of free atoms
     Check: negative starting charge=   -1.945137

     starting charge  799.16392, renormalised to  800.00000

     negative rho (up, down):  1.947E+00 0.000E+00


     ************************************************************************
     *
     * You are using vdW-DF for exchange-correlation in this calculation.
     * Please cite the following three references that made this development
     * possible:
     *
     *   M. Dion, H. Rydberg, E. Schroder, D. C. Langreth, and
     *   B. I. Lundqvist, Phys. Rev. Lett. 92, 246401 (2004).
     *
     *   T. Thonhauser, V. R. Cooper, S. Li, A. Puzder, P. Hyldgaard, and
     *   D. C. Langreth, Phys. Rev. B 76, 125112 (2007).
     *
     *   G. Roman-Perez and J. M. Soler, Phys. Rev. Lett. 103, 096102 (2009).
     *
     *
     * If you are using vdW-DF2, please also cite:
     *
     *   K. Lee, E. D. Murray, L. Kong, B. I. Lundqvist, and
     *   D. C. Langreth, Phys. Rev. B 82, 081101(R) (2010).
     *
     *
     * If you are calculating the stress with vdW-DF, please also cite:
     *
     *   R. Sabatini, E. Kucukbenli, B. Kolb, T. Thonhauser, and
     *   S. de Gironcoli, J. Phys.: Condens. Matter 24, 424209 (2012).
     *
     ************************************************************************

     Carrying out vdW-DF run using the following parameters:

     Nqs =      20    Nr_points =    1024   r_max =   100.000
     q_mesh =
               0.00001000     0.04494208     0.09755937     0.15916263
               0.23128650     0.31572767     0.41458969     0.53033537
               0.66584808     0.82450364     1.01025438     1.22772762
               1.48234092     1.78043706     2.12944203     2.53805004
               3.01644009     3.57652955     4.23227104     5.00000000

     Gradients computed in reciprocal space

     ************************************************************************


     Starting wfc are  654 randomized atomic wfcs

     total cpu time spent up to now is      126.2 secs

     Self-consistent Calculation

     iteration #  1     ecut=    50.00 Ry     beta=0.70
     Davidson diagonalization with overlap
     ethr =  1.00E-02,  avg # of iterations =  3.0

     Threshold (ethr) on eigenvalues was too large:
     Diagonalizing with lowered threshold

     Davidson diagonalization with overlap
     ethr =  4.17E-04,  avg # of iterations =  2.0

     negative rho (up, down):  1.947E+00 0.000E+00

     total cpu time spent up to now is      556.0 secs

     total energy              =   -7423.06027945 Ry
     Harris-Foulkes estimate   =   -7426.06237656 Ry
     estimated scf accuracy    <       3.70992953 Ry

     iteration #  2     ecut=    50.00 Ry     beta=0.70
     Davidson diagonalization with overlap
     ethr =  4.64E-04,  avg # of iterations = 11.3

     negative rho (up, down):  1.943E+00 0.000E+00

     total cpu time spent up to now is     1308.8 secs

     total energy              =   -7415.38596182 Ry
     Harris-Foulkes estimate   =   -7432.50698940 Ry
     estimated scf accuracy    <      88.60274823 Ry

     iteration #  3     ecut=    50.00 Ry     beta=0.70
     Davidson diagonalization with overlap
     ethr =  4.64E-04,  avg # of iterations =  6.7

     negative rho (up, down):  1.953E+00 0.000E+00

     total cpu time spent up to now is     1787.9 secs

     total energy              =   -7424.22025279 Ry
     Harris-Foulkes estimate   =   -7425.84752398 Ry
     estimated scf accuracy    <       6.55989776 Ry

     iteration #  4     ecut=    50.00 Ry     beta=0.70
     Davidson diagonalization with overlap
     ethr =  4.64E-04,  avg # of iterations =  4.8

     negative rho (up, down):  1.957E+00 0.000E+00

     total cpu time spent up to now is     2049.8 secs

     total energy              =   -7424.94920030 Ry
     Harris-Foulkes estimate   =   -7425.58568102 Ry
     estimated scf accuracy    <       3.04621229 Ry

     iteration #  5     ecut=    50.00 Ry     beta=0.70
     Davidson diagonalization with overlap
     ethr =  3.81E-04,  avg # of iterations =  6.0

     negative rho (up, down):  1.963E+00 0.000E+00

     total cpu time spent up to now is     2317.7 secs

     total energy              =   -7425.06417898 Ry
     Harris-Foulkes estimate   =   -7425.56929436 Ry
     estimated scf accuracy    <       3.94255437 Ry

     iteration #  6     ecut=    50.00 Ry     beta=0.70
     Davidson diagonalization with overlap
     ethr =  3.81E-04,  avg # of iterations =  3.0

     negative rho (up, down):  1.967E+00 0.000E+00

     total cpu time spent up to now is     2543.8 secs

     total energy              =   -7425.27353214 Ry
     Harris-Foulkes estimate   =   -7425.33132468 Ry
     estimated scf accuracy    <       0.21419561 Ry

     iteration #  7     ecut=    50.00 Ry     beta=0.70
     Davidson diagonalization with overlap
     ethr =  2.68E-05,  avg # of iterations =  5.2

     negative rho (up, down):  1.970E+00 0.000E+00

     total cpu time spent up to now is     2836.2 secs

     total energy              =   -7425.27992488 Ry
     Harris-Foulkes estimate   =   -7425.32392808 Ry
     estimated scf accuracy    <       0.22587116 Ry

     iteration #  8     ecut=    50.00 Ry     beta=0.70
     Davidson diagonalization with overlap
     ethr =  2.68E-05,  avg # of iterations =  3.0

     negative rho (up, down):  1.971E+00 0.000E+00

     total cpu time spent up to now is     3107.0 secs

     total energy              =   -7425.28778356 Ry
     Harris-Foulkes estimate   =   -7425.30691967 Ry
     estimated scf accuracy    <       0.07952636 Ry

     iteration #  9     ecut=    50.00 Ry     beta=0.70
     Davidson diagonalization with overlap
     ethr =  9.94E-06,  avg # of iterations = 11.3

     negative rho (up, down):  1.972E+00 0.000E+00

     total cpu time spent up to now is     3444.4 secs

     total energy              =   -7425.28946350 Ry
     Harris-Foulkes estimate   =   -7425.29896122 Ry
     estimated scf accuracy    <       0.03160371 Ry

     iteration # 10     ecut=    50.00 Ry     beta=0.70
     Davidson diagonalization with overlap
     ethr =  3.95E-06,  avg # of iterations =  5.7

     negative rho (up, down):  1.973E+00 0.000E+00

     total cpu time spent up to now is     3712.6 secs

     total energy              =   -7425.29096154 Ry
     Harris-Foulkes estimate   =   -7425.29384987 Ry
     estimated scf accuracy    <       0.00808198 Ry

     iteration # 11     ecut=    50.00 Ry     beta=0.70
     Davidson diagonalization with overlap
     ethr =  1.01E-06,  avg # of iterations =  8.0

     negative rho (up, down):  1.974E+00 0.000E+00

     total cpu time spent up to now is     3999.8 secs

     total energy              =   -7425.29150332 Ry
     Harris-Foulkes estimate   =   -7425.29255568 Ry
     estimated scf accuracy    <       0.00331351 Ry

     iteration # 12     ecut=    50.00 Ry     beta=0.70
     Davidson diagonalization with overlap
     ethr =  4.14E-07,  avg # of iterations =  2.2

     negative rho (up, down):  1.974E+00 0.000E+00

     total cpu time spent up to now is     4220.6 secs

     total energy              =   -7425.29110520 Ry
     Harris-Foulkes estimate   =   -7425.29213930 Ry
     estimated scf accuracy    <       0.00230271 Ry

     iteration # 13     ecut=    50.00 Ry     beta=0.70
     Davidson diagonalization with overlap
     ethr =  2.88E-07,  avg # of iterations =  6.8

     negative rho (up, down):  1.974E+00 0.000E+00

     total cpu time spent up to now is     4604.7 secs

     total energy              =   -7425.29013584 Ry
     Harris-Foulkes estimate   =   -7425.29354078 Ry
     estimated scf accuracy    <       0.01840159 Ry

     iteration # 14     ecut=    50.00 Ry     beta=0.70
     Davidson diagonalization with overlap
     ethr =  2.88E-07,  avg # of iterations =  3.0

     negative rho (up, down):  1.974E+00 0.000E+00

     total cpu time spent up to now is     4878.8 secs

     total energy              =   -7425.29172742 Ry
     Harris-Foulkes estimate   =   -7425.29181446 Ry
     estimated scf accuracy    <       0.00019943 Ry

     iteration # 15     ecut=    50.00 Ry     beta=0.70
     Davidson diagonalization with overlap
     ethr =  2.49E-08,  avg # of iterations =  3.0

     negative rho (up, down):  1.974E+00 0.000E+00

     total cpu time spent up to now is     5168.3 secs

     total energy              =   -7425.29164798 Ry
     Harris-Foulkes estimate   =   -7425.29190214 Ry
     estimated scf accuracy    <       0.00162167 Ry

     iteration # 16     ecut=    50.00 Ry     beta=0.70
     Davidson diagonalization with overlap
     ethr =  2.49E-08,  avg # of iterations =  2.0

     negative rho (up, down):  1.974E+00 0.000E+00

     total cpu time spent up to now is     5408.5 secs

     total energy              =   -7425.29171192 Ry
     Harris-Foulkes estimate   =   -7425.29187475 Ry
     estimated scf accuracy    <       0.00119187 Ry

     iteration # 17     ecut=    50.00 Ry     beta=0.70
     Davidson diagonalization with overlap
     ethr =  2.49E-08,  avg # of iterations =  2.0

     negative rho (up, down):  1.974E+00 0.000E+00

     total cpu time spent up to now is     5629.8 secs

     total energy              =   -7425.29178622 Ry
     Harris-Foulkes estimate   =   -7425.29179675 Ry
     estimated scf accuracy    <       0.00003715 Ry

     iteration # 18     ecut=    50.00 Ry     beta=0.70
     Davidson diagonalization with overlap
     ethr =  4.64E-09,  avg # of iterations =  2.0

     negative rho (up, down):  1.974E+00 0.000E+00

     total cpu time spent up to now is     5842.2 secs

     total energy              =   -7425.29179077 Ry
     Harris-Foulkes estimate   =   -7425.29179532 Ry
     estimated scf accuracy    <       0.00002275 Ry

     iteration # 19     ecut=    50.00 Ry     beta=0.70
     Davidson diagonalization with overlap
     ethr =  2.84E-09,  avg # of iterations =  2.0

     negative rho (up, down):  1.974E+00 0.000E+00

     total cpu time spent up to now is     6061.0 secs

     total energy              =   -7425.29179275 Ry
     Harris-Foulkes estimate   =   -7425.29179359 Ry
     estimated scf accuracy    <       0.00000251 Ry

     iteration # 20     ecut=    50.00 Ry     beta=0.70
     Davidson diagonalization with overlap
     ethr =  3.14E-10,  avg # of iterations =  2.0

     negative rho (up, down):  1.974E+00 0.000E+00

     total cpu time spent up to now is     6285.3 secs

     total energy              =   -7425.29179301 Ry
     Harris-Foulkes estimate   =   -7425.29179359 Ry
     estimated scf accuracy    <       0.00000220 Ry

     iteration # 21     ecut=    50.00 Ry     beta=0.70
     Davidson diagonalization with overlap
     ethr =  2.75E-10,  avg # of iterations =  2.0

     negative rho (up, down):  1.974E+00 0.000E+00

     total cpu time spent up to now is     6498.8 secs

     total energy              =   -7425.29179325 Ry
     Harris-Foulkes estimate   =   -7425.29179341 Ry
     estimated scf accuracy    <       0.00000050 Ry

     iteration # 22     ecut=    50.00 Ry     beta=0.70
     Davidson diagonalization with overlap
     ethr =  6.19E-11,  avg # of iterations =  2.0

     negative rho (up, down):  1.974E+00 0.000E+00

     total cpu time spent up to now is     6723.5 secs

     total energy              =   -7425.29179333 Ry
     Harris-Foulkes estimate   =   -7425.29179338 Ry
     estimated scf accuracy    <       0.00000023 Ry

     iteration # 23     ecut=    50.00 Ry     beta=0.70
     Davidson diagonalization with overlap
     ethr =  2.85E-11,  avg # of iterations =  2.0

     negative rho (up, down):  1.974E+00 0.000E+00

     total cpu time spent up to now is     6950.0 secs

     total energy              =   -7425.29179333 Ry
     Harris-Foulkes estimate   =   -7425.29179339 Ry
     estimated scf accuracy    <       0.00000019 Ry

     iteration # 24     ecut=    50.00 Ry     beta=0.70
     Davidson diagonalization with overlap
     ethr =  2.42E-11,  avg # of iterations =  2.0

     negative rho (up, down):  1.974E+00 0.000E+00

     total cpu time spent up to now is     7170.9 secs

     total energy              =   -7425.29179337 Ry
     Harris-Foulkes estimate   =   -7425.29179337 Ry
     estimated scf accuracy    <       0.00000005 Ry

     iteration # 25     ecut=    50.00 Ry     beta=0.70
     Davidson diagonalization with overlap
     ethr =  6.58E-12,  avg # of iterations =  3.0

     negative rho (up, down):  1.974E+00 0.000E+00

     total cpu time spent up to now is     7428.4 secs

     total energy              =   -7425.29179338 Ry
     Harris-Foulkes estimate   =   -7425.29179338 Ry
     estimated scf accuracy    <       0.00000001 Ry

     iteration # 26     ecut=    50.00 Ry     beta=0.70
     Davidson diagonalization with overlap
     ethr =  1.38E-12,  avg # of iterations =  3.0

     negative rho (up, down):  1.974E+00 0.000E+00

     total cpu time spent up to now is     7665.1 secs

     total energy              =   -7425.29179338 Ry
     Harris-Foulkes estimate   =   -7425.29179338 Ry
     estimated scf accuracy    <       0.00000004 Ry

     iteration # 27     ecut=    50.00 Ry     beta=0.70
     Davidson diagonalization with overlap
     ethr =  1.38E-12,  avg # of iterations =  2.0

     negative rho (up, down):  1.974E+00 0.000E+00

     total cpu time spent up to now is     7883.4 secs

     total energy              =   -7425.29179338 Ry
     Harris-Foulkes estimate   =   -7425.29179338 Ry
     estimated scf accuracy    <       0.00000001 Ry

     iteration # 28     ecut=    50.00 Ry     beta=0.70
     Davidson diagonalization with overlap
     ethr =  1.38E-12,  avg # of iterations =  2.0

     negative rho (up, down):  1.974E+00 0.000E+00

     total cpu time spent up to now is     8102.2 secs

     End of self-consistent calculation

          k = 0.2500 0.2500 0.0833 (167653 PWs)   bands (ev):

   -19.4078  -7.3315  -6.8216  -6.2965  -6.2938  -5.8663  -5.4560  -5.3654
    -5.3630  -5.1686  -5.1681  -5.0521  -5.0479  -4.9717  -4.9492  -4.8763
    -4.7910  -4.7873  -4.7498  -4.7480  -4.5878  -4.5709  -4.5703  -4.5685
    -4.5623  -4.5071  -4.5069  -4.4962  -4.4940  -4.4577  -4.4476  -4.4440
    -4.4033  -4.4027  -4.3698  -4.3684  -4.3184  -4.3151  -4.3061  -4.3043
    -4.2989  -4.2861  -4.2857  -4.2460  -4.2274  -4.2259  -4.2195  -4.2186
    -4.1883  -4.1417  -4.1248  -4.1228  -4.1212  -4.1171  -4.1105  -4.1052
    -4.1047  -4.1038  -4.0424  -4.0379  -3.9942  -3.9886  -3.9780  -3.9530
    -3.9501  -3.9357  -3.9282  -3.9277  -3.9236  -3.9211  -3.8725  -3.8714
    -3.8598  -3.8577  -3.7594  -3.7528  -3.7496  -3.7459  -3.7099  -3.7052
    -3.6859  -3.6618  -3.6565  -3.6309  -3.6266  -3.6138  -3.6060  -3.5950
    -3.5913  -3.5760  -3.5369  -3.5356  -3.5143  -3.5015  -3.4920  -3.4898
    -3.4893  -3.4789  -3.4622  -3.4544  -3.4254  -3.4226  -3.4045  -3.4004
    -3.3707  -3.3680  -3.3528  -3.3240  -3.3225  -3.2878  -3.2858  -3.2505
    -3.2424  -3.2421  -3.2284  -3.2274  -3.2231  -3.2222  -3.1874  -3.1739
    -3.1348  -3.1337  -3.1255  -3.1174  -3.1152  -3.1137  -3.0909  -3.0903
    -3.0708  -3.0692  -3.0669  -3.0415  -3.0407  -3.0336  -3.0310  -3.0297
    -2.9943  -2.9919  -2.9566  -2.9545  -2.9538  -2.9518  -2.9505  -2.8711
    -2.8618  -2.8602  -2.8574  -2.8560  -2.8552  -2.8525  -2.8504  -2.8499
    -2.8492  -2.8402  -2.8324  -2.8170  -2.8130  -2.8124  -2.8111  -2.7978
    -2.7932  -2.7560  -2.7548  -2.7539  -2.7507  -2.7478  -2.7320  -2.7304
    -2.7230  -2.7224  -2.7194  -2.6617  -2.6607  -2.6553  -2.6546  -2.6507
    -2.6495  -2.6226  -2.5630  -2.5623  -2.5615  -2.5587  -2.5478  -2.5465
    -2.5417  -2.5316  -2.5295  -2.4986  -2.4923  -2.4865  -2.4855  -2.4829
    -2.4823  -2.4459  -2.4440  -2.4352  -2.4331  -2.4327  -2.4309  -2.3891
    -2.3742  -2.3688  -2.3158  -2.3139  -2.3002  -2.2957  -2.2896  -2.2878
    -2.2429  -2.2387  -2.2175  -2.2028  -2.1889  -2.1870  -2.1842  -2.1644
    -2.1626  -2.1544  -2.1380  -2.1047  -2.0968  -2.0846  -2.0809  -2.0804
    -2.0727  -2.0703  -2.0632  -2.0556  -2.0539  -2.0504  -2.0470  -2.0444
    -2.0433  -2.0350  -2.0321  -2.0170  -2.0138  -2.0131  -2.0069  -2.0041
    -2.0021  -1.9818  -1.9789  -1.9695  -1.9671  -1.9622  -1.9594  -1.9227
    -1.8915  -1.8884  -1.8540  -1.8381  -1.8366  -1.8307  -1.8244  -1.8074
    -1.8015  -1.7916  -1.7868  -1.7861  -1.7850  -1.7833  -1.7810  -1.7506
    -1.7488  -1.7481  -1.7096  -1.7031  -1.6677  -1.6638  -1.6325  -1.6159
    -1.6117  -1.6000  -1.5806  -1.5764  -1.5724  -1.5554  -1.5490  -1.5391
    -1.5356  -1.5335  -1.5316  -1.5303  -1.5287  -1.5271  -1.5088  -1.5064
    -1.5008  -1.4847  -1.4790  -1.4617  -1.4559  -1.4346  -1.4328  -1.4314
    -1.4284  -1.4243  -1.4121  -1.4034  -1.3988  -1.3860  -1.3757  -1.3693
    -1.3647  -1.3517  -1.3443  -1.3209  -1.3183  -1.3121  -1.3095  -1.2767
    -1.2722  -1.2674  -1.2650  -1.2590  -1.2500  -1.2380  -1.2355  -1.2260
    -1.2193  -1.2156  -1.2074  -1.2038  -1.2030  -1.1957  -1.1904  -1.1786
    -1.1750  -1.1709  -1.1699  -1.1568  -1.1532  -1.1484  -1.1437  -1.1079
    -1.1045  -1.1006  -1.0985  -1.0975  -1.0946  -1.0601  -1.0435  -1.0407
    -1.0397  -1.0391  -1.0345  -1.0317  -1.0290  -1.0161  -1.0104  -0.9806
    -0.9760  -0.9723  -0.9715  -0.9502  -0.9492  -0.9397  -0.9109  -0.9020
    -0.8770  -0.8736  -0.8472  -0.8465  -0.8431  -0.8426  -0.8410  -0.8363
    -0.8330  -0.8324  -0.8286  -0.8268  -0.7966  -0.7950  -0.7765  -0.7746
    -0.7724  -0.7707  -0.7686  -0.7624  -0.7513  -0.4783  -0.4646  -0.4078
    -0.4018  -0.3697  -0.2099  -0.1455  -0.1429  -0.1071   0.1747   0.1780
     0.5039   0.5126   0.6029   0.6051   0.6431   0.6479   0.7887   0.7961
     0.9122   0.9152   1.0075   1.6005   1.6176   1.6188   1.6550   1.6633
     1.7051   1.7214   1.7862   1.7935   1.9924   1.9972   2.2346   2.3061
     2.3176   2.3270   2.7034   2.7187   2.7785   2.7816   2.7875   2.7906
     2.9384   2.9405   2.9941   3.0815   3.0956   3.3135   3.3222   3.4484
     3.4727   3.4804   3.7444   3.7549   3.8622   3.8797   3.8817   3.9486
     3.9784   4.0624   4.0701   4.2997   4.3050   4.3921   4.3988   4.5098
     4.5203   4.5399   4.5545   4.7033   5.1284   5.3464   5.3641   5.4471
     5.4551   5.5278   5.6223   5.6341   5.6650   5.7059   5.7403   5.7453
     5.7527   5.7914   5.7998   5.8399   6.0131   6.0892   6.1127   6.1184
     6.1243   6.1329   6.1373   6.1443   6.1504   6.1522   6.1901   6.2262

          k = 0.2500 0.2500-0.2500 (167588 PWs)   bands (ev):

   -19.4078  -7.3315  -6.8216  -6.2965  -6.2938  -5.8663  -5.4560  -5.3654
    -5.3630  -5.1686  -5.1681  -5.0521  -5.0479  -4.9717  -4.9492  -4.8763
    -4.7910  -4.7873  -4.7498  -4.7480  -4.5878  -4.5709  -4.5703  -4.5685
    -4.5623  -4.5071  -4.5069  -4.4962  -4.4940  -4.4577  -4.4476  -4.4440
    -4.4033  -4.4027  -4.3698  -4.3684  -4.3184  -4.3151  -4.3061  -4.3044
    -4.2989  -4.2861  -4.2857  -4.2460  -4.2274  -4.2259  -4.2195  -4.2186
    -4.1883  -4.1417  -4.1248  -4.1228  -4.1211  -4.1171  -4.1106  -4.1052
    -4.1047  -4.1038  -4.0424  -4.0379  -3.9942  -3.9886  -3.9781  -3.9530
    -3.9501  -3.9357  -3.9282  -3.9277  -3.9236  -3.9211  -3.8725  -3.8714
    -3.8598  -3.8577  -3.7594  -3.7528  -3.7496  -3.7459  -3.7099  -3.7052
    -3.6859  -3.6618  -3.6565  -3.6309  -3.6266  -3.6138  -3.6060  -3.5950
    -3.5913  -3.5760  -3.5369  -3.5356  -3.5143  -3.5015  -3.4920  -3.4898
    -3.4893  -3.4789  -3.4622  -3.4544  -3.4254  -3.4226  -3.4045  -3.4004
    -3.3707  -3.3680  -3.3528  -3.3240  -3.3225  -3.2878  -3.2858  -3.2505
    -3.2424  -3.2421  -3.2284  -3.2274  -3.2231  -3.2222  -3.1874  -3.1740
    -3.1348  -3.1337  -3.1255  -3.1174  -3.1151  -3.1137  -3.0909  -3.0903
    -3.0708  -3.0692  -3.0669  -3.0415  -3.0407  -3.0336  -3.0310  -3.0297
    -2.9943  -2.9919  -2.9566  -2.9545  -2.9538  -2.9518  -2.9505  -2.8711
    -2.8618  -2.8602  -2.8574  -2.8560  -2.8552  -2.8525  -2.8504  -2.8499
    -2.8492  -2.8402  -2.8324  -2.8170  -2.8130  -2.8124  -2.8111  -2.7977
    -2.7932  -2.7560  -2.7547  -2.7538  -2.7507  -2.7478  -2.7320  -2.7304
    -2.7230  -2.7224  -2.7194  -2.6617  -2.6607  -2.6553  -2.6546  -2.6506
    -2.6495  -2.6226  -2.5630  -2.5623  -2.5615  -2.5587  -2.5478  -2.5465
    -2.5417  -2.5316  -2.5295  -2.4986  -2.4923  -2.4865  -2.4855  -2.4829
    -2.4823  -2.4459  -2.4440  -2.4352  -2.4331  -2.4327  -2.4309  -2.3892
    -2.3742  -2.3688  -2.3158  -2.3139  -2.3002  -2.2957  -2.2896  -2.2878
    -2.2429  -2.2387  -2.2175  -2.2028  -2.1889  -2.1870  -2.1842  -2.1644
    -2.1626  -2.1544  -2.1380  -2.1047  -2.0968  -2.0846  -2.0809  -2.0804
    -2.0727  -2.0703  -2.0632  -2.0556  -2.0539  -2.0504  -2.0470  -2.0444
    -2.0433  -2.0350  -2.0321  -2.0170  -2.0138  -2.0131  -2.0070  -2.0041
    -2.0021  -1.9818  -1.9789  -1.9695  -1.9671  -1.9622  -1.9594  -1.9227
    -1.8915  -1.8884  -1.8540  -1.8381  -1.8366  -1.8307  -1.8244  -1.8074
    -1.8015  -1.7916  -1.7868  -1.7861  -1.7850  -1.7833  -1.7810  -1.7506
    -1.7488  -1.7481  -1.7096  -1.7031  -1.6677  -1.6638  -1.6325  -1.6159
    -1.6117  -1.6000  -1.5806  -1.5764  -1.5724  -1.5554  -1.5490  -1.5391
    -1.5356  -1.5335  -1.5316  -1.5303  -1.5287  -1.5271  -1.5088  -1.5064
    -1.5008  -1.4847  -1.4790  -1.4617  -1.4559  -1.4346  -1.4328  -1.4314
    -1.4284  -1.4243  -1.4121  -1.4033  -1.3988  -1.3860  -1.3757  -1.3693
    -1.3647  -1.3517  -1.3443  -1.3209  -1.3183  -1.3120  -1.3095  -1.2767
    -1.2722  -1.2674  -1.2650  -1.2590  -1.2500  -1.2380  -1.2355  -1.2260
    -1.2193  -1.2156  -1.2074  -1.2038  -1.2030  -1.1957  -1.1904  -1.1787
    -1.1750  -1.1709  -1.1699  -1.1568  -1.1532  -1.1484  -1.1437  -1.1079
    -1.1046  -1.1007  -1.0985  -1.0975  -1.0946  -1.0601  -1.0435  -1.0407
    -1.0397  -1.0391  -1.0345  -1.0317  -1.0290  -1.0161  -1.0104  -0.9806
    -0.9760  -0.9723  -0.9715  -0.9502  -0.9492  -0.9397  -0.9109  -0.9020
    -0.8770  -0.8736  -0.8472  -0.8465  -0.8431  -0.8426  -0.8410  -0.8363
    -0.8330  -0.8324  -0.8286  -0.8268  -0.7966  -0.7950  -0.7765  -0.7746
    -0.7724  -0.7707  -0.7686  -0.7624  -0.7513  -0.4783  -0.4646  -0.4078
    -0.4018  -0.3697  -0.2099  -0.1455  -0.1429  -0.1071   0.1747   0.1780
     0.5039   0.5126   0.6029   0.6051   0.6431   0.6479   0.7887   0.7961
     0.9122   0.9152   1.0075   1.6005   1.6176   1.6188   1.6550   1.6633
     1.7051   1.7214   1.7862   1.7935   1.9924   1.9972   2.2346   2.3061
     2.3176   2.3270   2.7034   2.7187   2.7785   2.7816   2.7875   2.7906
     2.9384   2.9405   2.9941   3.0815   3.0956   3.3135   3.3222   3.4484
     3.4727   3.4804   3.7444   3.7549   3.8622   3.8797   3.8817   3.9487
     3.9784   4.0624   4.0701   4.2997   4.3050   4.3921   4.3988   4.5098
     4.5203   4.5399   4.5545   4.7034   5.1196   5.3433   5.3616   5.4466
     5.4551   5.5258   5.6225   5.6344   5.6846   5.7214   5.7412   5.7473
     5.7604   5.7916   5.7999   5.8403   6.0466   6.0760   6.1005   6.1182
     6.1261   6.1328   6.1395   6.1472   6.1504   6.1604   6.2082   6.2361

          k =-0.2500-0.2500 0.0833 (167653 PWs)   bands (ev):

   -19.4078  -7.3315  -6.8216  -6.2965  -6.2938  -5.8663  -5.4560  -5.3654
    -5.3630  -5.1686  -5.1681  -5.0521  -5.0479  -4.9717  -4.9492  -4.8763
    -4.7910  -4.7873  -4.7498  -4.7480  -4.5878  -4.5709  -4.5703  -4.5685
    -4.5623  -4.5071  -4.5069  -4.4962  -4.4940  -4.4577  -4.4476  -4.4440
    -4.4033  -4.4027  -4.3698  -4.3684  -4.3184  -4.3151  -4.3061  -4.3043
    -4.2989  -4.2861  -4.2857  -4.2460  -4.2274  -4.2259  -4.2195  -4.2186
    -4.1883  -4.1417  -4.1248  -4.1228  -4.1212  -4.1171  -4.1105  -4.1052
    -4.1047  -4.1038  -4.0424  -4.0379  -3.9942  -3.9886  -3.9780  -3.9530
    -3.9501  -3.9357  -3.9282  -3.9277  -3.9236  -3.9211  -3.8725  -3.8714
    -3.8598  -3.8577  -3.7594  -3.7528  -3.7496  -3.7459  -3.7099  -3.7052
    -3.6859  -3.6618  -3.6565  -3.6309  -3.6266  -3.6138  -3.6060  -3.5950
    -3.5913  -3.5760  -3.5369  -3.5356  -3.5143  -3.5015  -3.4920  -3.4898
    -3.4893  -3.4789  -3.4622  -3.4544  -3.4254  -3.4226  -3.4045  -3.4004
    -3.3707  -3.3680  -3.3528  -3.3240  -3.3225  -3.2878  -3.2858  -3.2505
    -3.2424  -3.2421  -3.2284  -3.2274  -3.2231  -3.2222  -3.1874  -3.1739
    -3.1348  -3.1337  -3.1255  -3.1174  -3.1152  -3.1137  -3.0909  -3.0903
    -3.0708  -3.0692  -3.0669  -3.0415  -3.0407  -3.0336  -3.0310  -3.0297
    -2.9943  -2.9919  -2.9566  -2.9545  -2.9538  -2.9518  -2.9505  -2.8711
    -2.8618  -2.8602  -2.8574  -2.8560  -2.8552  -2.8525  -2.8504  -2.8499
    -2.8492  -2.8402  -2.8324  -2.8170  -2.8130  -2.8124  -2.8111  -2.7978
    -2.7932  -2.7560  -2.7548  -2.7539  -2.7507  -2.7478  -2.7320  -2.7304
    -2.7230  -2.7224  -2.7194  -2.6617  -2.6607  -2.6553  -2.6546  -2.6507
    -2.6495  -2.6226  -2.5630  -2.5623  -2.5615  -2.5587  -2.5478  -2.5465
    -2.5417  -2.5316  -2.5295  -2.4986  -2.4923  -2.4865  -2.4855  -2.4829
    -2.4823  -2.4459  -2.4440  -2.4352  -2.4331  -2.4327  -2.4309  -2.3891
    -2.3742  -2.3688  -2.3158  -2.3139  -2.3002  -2.2957  -2.2896  -2.2878
    -2.2429  -2.2387  -2.2175  -2.2028  -2.1889  -2.1870  -2.1842  -2.1644
    -2.1626  -2.1544  -2.1380  -2.1047  -2.0968  -2.0846  -2.0809  -2.0804
    -2.0727  -2.0703  -2.0632  -2.0556  -2.0539  -2.0504  -2.0470  -2.0444
    -2.0433  -2.0350  -2.0321  -2.0170  -2.0138  -2.0131  -2.0069  -2.0041
    -2.0021  -1.9818  -1.9789  -1.9695  -1.9671  -1.9622  -1.9594  -1.9227
    -1.8915  -1.8884  -1.8540  -1.8381  -1.8366  -1.8307  -1.8244  -1.8074
    -1.8015  -1.7916  -1.7868  -1.7861  -1.7850  -1.7833  -1.7810  -1.7506
    -1.7488  -1.7481  -1.7096  -1.7031  -1.6677  -1.6638  -1.6325  -1.6159
    -1.6117  -1.6000  -1.5806  -1.5764  -1.5724  -1.5554  -1.5490  -1.5391
    -1.5356  -1.5335  -1.5316  -1.5303  -1.5287  -1.5271  -1.5088  -1.5064
    -1.5008  -1.4847  -1.4790  -1.4617  -1.4559  -1.4346  -1.4328  -1.4314
    -1.4284  -1.4243  -1.4121  -1.4034  -1.3988  -1.3860  -1.3757  -1.3693
    -1.3647  -1.3517  -1.3443  -1.3209  -1.3183  -1.3121  -1.3095  -1.2767
    -1.2722  -1.2674  -1.2650  -1.2590  -1.2500  -1.2380  -1.2355  -1.2260
    -1.2193  -1.2156  -1.2074  -1.2038  -1.2030  -1.1957  -1.1904  -1.1786
    -1.1750  -1.1709  -1.1699  -1.1568  -1.1532  -1.1484  -1.1437  -1.1079
    -1.1045  -1.1006  -1.0985  -1.0975  -1.0946  -1.0601  -1.0435  -1.0407
    -1.0397  -1.0391  -1.0345  -1.0317  -1.0290  -1.0161  -1.0104  -0.9806
    -0.9760  -0.9723  -0.9715  -0.9502  -0.9492  -0.9397  -0.9109  -0.9020
    -0.8770  -0.8736  -0.8472  -0.8465  -0.8431  -0.8426  -0.8410  -0.8363
    -0.8330  -0.8324  -0.8286  -0.8268  -0.7966  -0.7950  -0.7765  -0.7746
    -0.7724  -0.7707  -0.7686  -0.7624  -0.7513  -0.4783  -0.4646  -0.4078
    -0.4018  -0.3697  -0.2099  -0.1455  -0.1429  -0.1071   0.1747   0.1780
     0.5039   0.5126   0.6029   0.6051   0.6431   0.6479   0.7887   0.7961
     0.9122   0.9152   1.0075   1.6005   1.6176   1.6188   1.6550   1.6633
     1.7051   1.7214   1.7862   1.7935   1.9924   1.9972   2.2346   2.3061
     2.3176   2.3270   2.7034   2.7187   2.7785   2.7816   2.7875   2.7906
     2.9384   2.9405   2.9941   3.0815   3.0956   3.3135   3.3222   3.4484
     3.4727   3.4804   3.7444   3.7549   3.8622   3.8797   3.8817   3.9486
     3.9784   4.0624   4.0701   4.2997   4.3050   4.3921   4.3988   4.5098
     4.5203   4.5399   4.5545   4.7033   5.1281   5.3465   5.3653   5.4470
     5.4550   5.5237   5.6220   5.6342   5.6691   5.7077   5.7400   5.7454
     5.7531   5.7914   5.7998   5.8398   6.0148   6.0896   6.1098   6.1183
     6.1266   6.1330   6.1357   6.1444   6.1504   6.1516   6.1818   6.2216

          k =-0.2500 0.2500-0.0833 (167653 PWs)   bands (ev):

   -19.4078  -7.3315  -6.8216  -6.2966  -6.2936  -5.8663  -5.4560  -5.3656
    -5.3628  -5.1686  -5.1681  -5.0523  -5.0478  -4.9717  -4.9492  -4.8763
    -4.7909  -4.7874  -4.7499  -4.7479  -4.5878  -4.5710  -4.5705  -4.5682
    -4.5623  -4.5071  -4.5069  -4.4964  -4.4937  -4.4577  -4.4479  -4.4437
    -4.4034  -4.4026  -4.3698  -4.3684  -4.3189  -4.3148  -4.3060  -4.3044
    -4.2989  -4.2861  -4.2857  -4.2457  -4.2275  -4.2259  -4.2196  -4.2185
    -4.1881  -4.1413  -4.1256  -4.1229  -4.1209  -4.1170  -4.1106  -4.1053
    -4.1048  -4.1038  -4.0430  -4.0376  -3.9939  -3.9884  -3.9778  -3.9534
    -3.9501  -3.9363  -3.9283  -3.9274  -3.9237  -3.9210  -3.8724  -3.8713
    -3.8599  -3.8575  -3.7591  -3.7527  -3.7499  -3.7457  -3.7099  -3.7052
    -3.6859  -3.6620  -3.6565  -3.6308  -3.6265  -3.6148  -3.6060  -3.5948
    -3.5910  -3.5745  -3.5370  -3.5355  -3.5153  -3.5014  -3.4921  -3.4900
    -3.4892  -3.4795  -3.4622  -3.4534  -3.4254  -3.4224  -3.4048  -3.4000
    -3.3710  -3.3678  -3.3528  -3.3240  -3.3227  -3.2880  -3.2856  -3.2505
    -3.2424  -3.2421  -3.2284  -3.2274  -3.2231  -3.2222  -3.1875  -3.1739
    -3.1348  -3.1338  -3.1255  -3.1175  -3.1150  -3.1137  -3.0907  -3.0903
    -3.0711  -3.0693  -3.0666  -3.0414  -3.0406  -3.0337  -3.0312  -3.0296
    -2.9943  -2.9920  -2.9567  -2.9545  -2.9537  -2.9519  -2.9504  -2.8711
    -2.8618  -2.8606  -2.8575  -2.8557  -2.8550  -2.8529  -2.8502  -2.8498
    -2.8492  -2.8402  -2.8323  -2.8170  -2.8130  -2.8124  -2.8111  -2.7977
    -2.7932  -2.7561  -2.7548  -2.7538  -2.7510  -2.7477  -2.7322  -2.7302
    -2.7231  -2.7223  -2.7195  -2.6616  -2.6607  -2.6552  -2.6549  -2.6507
    -2.6494  -2.6226  -2.5632  -2.5621  -2.5612  -2.5587  -2.5478  -2.5465
    -2.5416  -2.5317  -2.5294  -2.4984  -2.4919  -2.4869  -2.4858  -2.4825
    -2.4821  -2.4458  -2.4438  -2.4353  -2.4332  -2.4328  -2.4307  -2.3892
    -2.3744  -2.3688  -2.3161  -2.3138  -2.3000  -2.2958  -2.2895  -2.2878
    -2.2431  -2.2386  -2.2174  -2.2030  -2.1885  -2.1872  -2.1842  -2.1644
    -2.1626  -2.1544  -2.1381  -2.1057  -2.0965  -2.0843  -2.0810  -2.0803
    -2.0728  -2.0702  -2.0634  -2.0558  -2.0541  -2.0503  -2.0471  -2.0445
    -2.0428  -2.0351  -2.0318  -2.0167  -2.0141  -2.0131  -2.0070  -2.0043
    -2.0019  -1.9820  -1.9785  -1.9693  -1.9672  -1.9620  -1.9597  -1.9226
    -1.8918  -1.8879  -1.8539  -1.8383  -1.8372  -1.8318  -1.8239  -1.8076
    -1.8017  -1.7918  -1.7870  -1.7860  -1.7847  -1.7831  -1.7805  -1.7505
    -1.7488  -1.7481  -1.7089  -1.7031  -1.6681  -1.6637  -1.6311  -1.6159
    -1.6120  -1.6000  -1.5805  -1.5766  -1.5724  -1.5554  -1.5490  -1.5395
    -1.5354  -1.5339  -1.5316  -1.5302  -1.5286  -1.5271  -1.5095  -1.5071
    -1.5012  -1.4838  -1.4787  -1.4617  -1.4551  -1.4347  -1.4324  -1.4319
    -1.4288  -1.4245  -1.4131  -1.4034  -1.3966  -1.3865  -1.3744  -1.3706
    -1.3647  -1.3517  -1.3442  -1.3210  -1.3181  -1.3114  -1.3104  -1.2776
    -1.2715  -1.2675  -1.2647  -1.2589  -1.2502  -1.2383  -1.2354  -1.2259
    -1.2195  -1.2155  -1.2077  -1.2037  -1.2029  -1.1955  -1.1904  -1.1786
    -1.1745  -1.1707  -1.1700  -1.1567  -1.1538  -1.1488  -1.1435  -1.1078
    -1.1041  -1.1009  -1.0985  -1.0976  -1.0950  -1.0600  -1.0438  -1.0407
    -1.0396  -1.0387  -1.0345  -1.0318  -1.0292  -1.0161  -1.0101  -0.9809
    -0.9757  -0.9722  -0.9714  -0.9503  -0.9492  -0.9396  -0.9107  -0.9020
    -0.8771  -0.8734  -0.8472  -0.8467  -0.8431  -0.8425  -0.8410  -0.8364
    -0.8332  -0.8323  -0.8290  -0.8265  -0.7967  -0.7947  -0.7771  -0.7749
    -0.7723  -0.7706  -0.7690  -0.7614  -0.7512  -0.4784  -0.4646  -0.4095
    -0.4001  -0.3698  -0.2102  -0.1461  -0.1426  -0.1071   0.1742   0.1787
     0.5029   0.5135   0.6024   0.6055   0.6420   0.6485   0.7873   0.7975
     0.9122   0.9153   1.0078   1.6007   1.6176   1.6193   1.6555   1.6633
     1.7030   1.7229   1.7853   1.7948   1.9917   1.9979   2.2349   2.3050
     2.3186   2.3270   2.7020   2.7196   2.7783   2.7819   2.7872   2.7910
     2.9381   2.9408   2.9934   3.0798   3.0971   3.3134   3.3215   3.4484
     3.4721   3.4813   3.7431   3.7556   3.8641   3.8796   3.8822   3.9467
     3.9792   4.0610   4.0708   4.2989   4.3054   4.3924   4.3993   4.5112
     4.5204   4.5390   4.5557   4.7038   5.1279   5.3453   5.3660   5.4464
     5.4546   5.5247   5.6202   5.6349   5.6701   5.7085   5.7386   5.7459
     5.7519   5.7884   5.8005   5.8397   6.0138   6.0901   6.1112   6.1186
     6.1255   6.1314   6.1366   6.1449   6.1503   6.1515   6.1836   6.2203

          k = 0.2500-0.2500-0.0833 (167653 PWs)   bands (ev):

   -19.4078  -7.3315  -6.8216  -6.2966  -6.2936  -5.8663  -5.4560  -5.3656
    -5.3628  -5.1686  -5.1681  -5.0523  -5.0478  -4.9717  -4.9492  -4.8763
    -4.7909  -4.7874  -4.7499  -4.7479  -4.5878  -4.5710  -4.5705  -4.5682
    -4.5623  -4.5071  -4.5069  -4.4964  -4.4937  -4.4577  -4.4479  -4.4437
    -4.4034  -4.4026  -4.3698  -4.3684  -4.3189  -4.3148  -4.3060  -4.3044
    -4.2989  -4.2861  -4.2857  -4.2457  -4.2275  -4.2259  -4.2196  -4.2185
    -4.1881  -4.1413  -4.1256  -4.1229  -4.1209  -4.1170  -4.1106  -4.1053
    -4.1048  -4.1038  -4.0430  -4.0376  -3.9939  -3.9884  -3.9778  -3.9534
    -3.9501  -3.9363  -3.9283  -3.9274  -3.9237  -3.9210  -3.8724  -3.8713
    -3.8599  -3.8575  -3.7591  -3.7527  -3.7499  -3.7457  -3.7099  -3.7052
    -3.6859  -3.6620  -3.6565  -3.6308  -3.6265  -3.6148  -3.6060  -3.5948
    -3.5910  -3.5745  -3.5370  -3.5355  -3.5153  -3.5014  -3.4921  -3.4900
    -3.4892  -3.4795  -3.4622  -3.4534  -3.4254  -3.4224  -3.4048  -3.4000
    -3.3710  -3.3678  -3.3528  -3.3240  -3.3227  -3.2880  -3.2856  -3.2505
    -3.2424  -3.2421  -3.2284  -3.2274  -3.2231  -3.2222  -3.1875  -3.1739
    -3.1348  -3.1338  -3.1255  -3.1175  -3.1150  -3.1137  -3.0907  -3.0903
    -3.0711  -3.0693  -3.0666  -3.0414  -3.0406  -3.0337  -3.0312  -3.0296
    -2.9943  -2.9920  -2.9567  -2.9545  -2.9537  -2.9519  -2.9504  -2.8711
    -2.8618  -2.8606  -2.8575  -2.8557  -2.8550  -2.8529  -2.8502  -2.8498
    -2.8492  -2.8402  -2.8323  -2.8170  -2.8130  -2.8124  -2.8111  -2.7977
    -2.7932  -2.7561  -2.7548  -2.7538  -2.7510  -2.7477  -2.7322  -2.7302
    -2.7231  -2.7223  -2.7195  -2.6616  -2.6607  -2.6552  -2.6549  -2.6507
    -2.6494  -2.6226  -2.5632  -2.5621  -2.5612  -2.5587  -2.5478  -2.5465
    -2.5416  -2.5317  -2.5294  -2.4984  -2.4919  -2.4869  -2.4858  -2.4825
    -2.4821  -2.4458  -2.4438  -2.4353  -2.4332  -2.4328  -2.4307  -2.3892
    -2.3744  -2.3688  -2.3161  -2.3138  -2.3000  -2.2958  -2.2895  -2.2878
    -2.2431  -2.2386  -2.2174  -2.2030  -2.1885  -2.1872  -2.1842  -2.1644
    -2.1626  -2.1544  -2.1381  -2.1057  -2.0965  -2.0843  -2.0810  -2.0803
    -2.0728  -2.0702  -2.0634  -2.0558  -2.0541  -2.0503  -2.0471  -2.0445
    -2.0428  -2.0351  -2.0318  -2.0167  -2.0141  -2.0131  -2.0070  -2.0043
    -2.0019  -1.9820  -1.9785  -1.9693  -1.9672  -1.9620  -1.9597  -1.9226
    -1.8918  -1.8879  -1.8539  -1.8383  -1.8372  -1.8318  -1.8239  -1.8076
    -1.8017  -1.7918  -1.7870  -1.7860  -1.7847  -1.7831  -1.7805  -1.7505
    -1.7488  -1.7481  -1.7089  -1.7031  -1.6681  -1.6637  -1.6311  -1.6159
    -1.6120  -1.6000  -1.5805  -1.5766  -1.5724  -1.5554  -1.5490  -1.5395
    -1.5354  -1.5339  -1.5316  -1.5302  -1.5286  -1.5271  -1.5095  -1.5071
    -1.5012  -1.4838  -1.4787  -1.4617  -1.4551  -1.4347  -1.4324  -1.4319
    -1.4288  -1.4245  -1.4131  -1.4034  -1.3966  -1.3865  -1.3744  -1.3706
    -1.3647  -1.3517  -1.3442  -1.3210  -1.3181  -1.3114  -1.3104  -1.2776
    -1.2715  -1.2675  -1.2647  -1.2589  -1.2502  -1.2383  -1.2354  -1.2259
    -1.2195  -1.2155  -1.2077  -1.2037  -1.2029  -1.1955  -1.1904  -1.1786
    -1.1745  -1.1707  -1.1700  -1.1567  -1.1538  -1.1488  -1.1435  -1.1078
    -1.1041  -1.1009  -1.0985  -1.0976  -1.0950  -1.0600  -1.0438  -1.0407
    -1.0396  -1.0387  -1.0345  -1.0318  -1.0292  -1.0161  -1.0101  -0.9809
    -0.9757  -0.9722  -0.9714  -0.9503  -0.9492  -0.9396  -0.9107  -0.9020
    -0.8771  -0.8734  -0.8472  -0.8467  -0.8431  -0.8425  -0.8410  -0.8364
    -0.8332  -0.8323  -0.8290  -0.8265  -0.7967  -0.7947  -0.7771  -0.7749
    -0.7723  -0.7706  -0.7690  -0.7614  -0.7512  -0.4784  -0.4646  -0.4095
    -0.4001  -0.3698  -0.2102  -0.1461  -0.1426  -0.1071   0.1742   0.1787
     0.5029   0.5135   0.6024   0.6055   0.6420   0.6485   0.7873   0.7975
     0.9122   0.9153   1.0078   1.6007   1.6176   1.6193   1.6555   1.6633
     1.7030   1.7229   1.7853   1.7948   1.9917   1.9979   2.2349   2.3050
     2.3186   2.3270   2.7020   2.7196   2.7783   2.7819   2.7872   2.7910
     2.9381   2.9408   2.9934   3.0798   3.0971   3.3134   3.3215   3.4484
     3.4721   3.4813   3.7431   3.7556   3.8641   3.8796   3.8822   3.9467
     3.9792   4.0610   4.0708   4.2989   4.3054   4.3924   4.3993   4.5112
     4.5204   4.5390   4.5557   4.7038   5.1282   5.3452   5.3649   5.4464
     5.4545   5.5288   5.6204   5.6348   5.6664   5.7066   5.7388   5.7457
     5.7515   5.7883   5.8005   5.8397   6.0121   6.0897   6.1129   6.1185
     6.1245   6.1312   6.1381   6.1448   6.1504   6.1519   6.1920   6.2260

          k =-0.2500 0.2500 0.2500 (167588 PWs)   bands (ev):

   -19.4078  -7.3315  -6.8216  -6.2966  -6.2936  -5.8663  -5.4560  -5.3656
    -5.3628  -5.1686  -5.1681  -5.0523  -5.0478  -4.9717  -4.9492  -4.8763
    -4.7909  -4.7874  -4.7499  -4.7479  -4.5878  -4.5710  -4.5705  -4.5682
    -4.5623  -4.5071  -4.5069  -4.4964  -4.4937  -4.4577  -4.4479  -4.4437
    -4.4034  -4.4026  -4.3698  -4.3684  -4.3189  -4.3148  -4.3060  -4.3044
    -4.2989  -4.2861  -4.2857  -4.2457  -4.2275  -4.2259  -4.2196  -4.2185
    -4.1881  -4.1413  -4.1256  -4.1229  -4.1209  -4.1170  -4.1106  -4.1053
    -4.1048  -4.1038  -4.0430  -4.0376  -3.9939  -3.9884  -3.9778  -3.9534
    -3.9501  -3.9363  -3.9283  -3.9274  -3.9237  -3.9210  -3.8724  -3.8713
    -3.8599  -3.8575  -3.7591  -3.7527  -3.7499  -3.7457  -3.7099  -3.7052
    -3.6859  -3.6620  -3.6565  -3.6308  -3.6265  -3.6148  -3.6060  -3.5948
    -3.5910  -3.5745  -3.5370  -3.5355  -3.5153  -3.5015  -3.4921  -3.4900
    -3.4892  -3.4795  -3.4622  -3.4534  -3.4254  -3.4224  -3.4048  -3.4000
    -3.3710  -3.3678  -3.3528  -3.3240  -3.3227  -3.2880  -3.2856  -3.2505
    -3.2424  -3.2421  -3.2284  -3.2274  -3.2231  -3.2222  -3.1875  -3.1739
    -3.1348  -3.1338  -3.1255  -3.1175  -3.1150  -3.1137  -3.0908  -3.0903
    -3.0711  -3.0693  -3.0666  -3.0414  -3.0406  -3.0337  -3.0311  -3.0296
    -2.9943  -2.9920  -2.9567  -2.9545  -2.9537  -2.9519  -2.9504  -2.8711
    -2.8618  -2.8606  -2.8575  -2.8557  -2.8550  -2.8529  -2.8502  -2.8498
    -2.8492  -2.8402  -2.8323  -2.8170  -2.8130  -2.8124  -2.8111  -2.7977
    -2.7932  -2.7561  -2.7548  -2.7538  -2.7510  -2.7477  -2.7322  -2.7302
    -2.7231  -2.7223  -2.7195  -2.6616  -2.6607  -2.6552  -2.6549  -2.6507
    -2.6494  -2.6227  -2.5632  -2.5621  -2.5612  -2.5587  -2.5478  -2.5465
    -2.5416  -2.5317  -2.5294  -2.4984  -2.4919  -2.4869  -2.4858  -2.4825
    -2.4821  -2.4458  -2.4438  -2.4353  -2.4332  -2.4328  -2.4307  -2.3892
    -2.3744  -2.3688  -2.3161  -2.3138  -2.3000  -2.2958  -2.2895  -2.2878
    -2.2431  -2.2386  -2.2174  -2.2030  -2.1885  -2.1872  -2.1842  -2.1644
    -2.1626  -2.1544  -2.1381  -2.1057  -2.0965  -2.0843  -2.0809  -2.0803
    -2.0728  -2.0702  -2.0634  -2.0558  -2.0541  -2.0503  -2.0471  -2.0445
    -2.0428  -2.0351  -2.0318  -2.0167  -2.0141  -2.0131  -2.0070  -2.0043
    -2.0019  -1.9820  -1.9785  -1.9693  -1.9672  -1.9620  -1.9597  -1.9227
    -1.8918  -1.8879  -1.8539  -1.8383  -1.8372  -1.8318  -1.8239  -1.8076
    -1.8017  -1.7918  -1.7870  -1.7860  -1.7847  -1.7831  -1.7805  -1.7505
    -1.7488  -1.7481  -1.7089  -1.7031  -1.6681  -1.6637  -1.6311  -1.6159
    -1.6120  -1.6000  -1.5805  -1.5766  -1.5724  -1.5554  -1.5490  -1.5395
    -1.5354  -1.5339  -1.5316  -1.5302  -1.5286  -1.5271  -1.5095  -1.5071
    -1.5012  -1.4838  -1.4787  -1.4617  -1.4551  -1.4347  -1.4324  -1.4319
    -1.4288  -1.4245  -1.4131  -1.4034  -1.3966  -1.3865  -1.3744  -1.3706
    -1.3648  -1.3517  -1.3442  -1.3210  -1.3181  -1.3114  -1.3104  -1.2776
    -1.2714  -1.2675  -1.2647  -1.2589  -1.2502  -1.2383  -1.2354  -1.2259
    -1.2195  -1.2155  -1.2077  -1.2037  -1.2029  -1.1955  -1.1904  -1.1786
    -1.1745  -1.1707  -1.1700  -1.1567  -1.1538  -1.1488  -1.1435  -1.1078
    -1.1041  -1.1009  -1.0985  -1.0976  -1.0950  -1.0600  -1.0438  -1.0407
    -1.0396  -1.0387  -1.0344  -1.0318  -1.0292  -1.0161  -1.0101  -0.9809
    -0.9757  -0.9722  -0.9714  -0.9503  -0.9492  -0.9396  -0.9107  -0.9020
    -0.8771  -0.8734  -0.8472  -0.8467  -0.8431  -0.8425  -0.8410  -0.8364
    -0.8332  -0.8323  -0.8290  -0.8265  -0.7967  -0.7947  -0.7771  -0.7749
    -0.7723  -0.7706  -0.7690  -0.7614  -0.7511  -0.4784  -0.4646  -0.4095
    -0.4001  -0.3698  -0.2102  -0.1461  -0.1425  -0.1071   0.1742   0.1787
     0.5028   0.5135   0.6024   0.6055   0.6420   0.6485   0.7873   0.7975
     0.9122   0.9153   1.0078   1.6007   1.6176   1.6193   1.6555   1.6633
     1.7030   1.7229   1.7853   1.7948   1.9917   1.9979   2.2349   2.3050
     2.3186   2.3270   2.7020   2.7196   2.7783   2.7819   2.7872   2.7910
     2.9381   2.9408   2.9934   3.0798   3.0971   3.3134   3.3215   3.4484
     3.4721   3.4813   3.7432   3.7556   3.8641   3.8796   3.8822   3.9468
     3.9792   4.0610   4.0708   4.2989   4.3054   4.3924   4.3993   4.5111
     4.5204   4.5389   4.5557   4.7039   5.1194   5.3423   5.3621   5.4460
     5.4546   5.5272   5.6207   5.6351   5.6849   5.7189   5.7424   5.7470
     5.7615   5.7883   5.8006   5.8401   6.0455   6.0766   6.1003   6.1187
     6.1251   6.1331   6.1403   6.1481   6.1504   6.1607   6.2071   6.2373

     the Fermi energy is     0.8649 ev

!    total energy              =   -7425.29179338 Ry
     Harris-Foulkes estimate   =   -7425.29179338 Ry
     estimated scf accuracy    <          4.9E-09 Ry

     The total energy is the sum of the following terms:

     one-electron contribution =  -48833.74775864 Ry
     hartree contribution      =   24967.65682543 Ry
     xc contribution           =   -3604.24253811 Ry
     ewald contribution        =   20045.04428075 Ry
     smearing contrib. (-TS)   =      -0.00260281 Ry

     convergence has been achieved in  28 iterations

     Writing output data file 6080142.save

     init_run     :    114.94s CPU    124.16s WALL (       1 calls)
     electrons    :   7473.87s CPU   7976.51s WALL (       1 calls)

     Called by init_run:
     wfcinit      :     79.40s CPU     87.82s WALL (       1 calls)
     potinit      :      7.38s CPU      7.81s WALL (       1 calls)

     Called by electrons:
     c_bands      :   5682.21s CPU   6077.78s WALL (      29 calls)
     sum_band     :   1128.50s CPU   1215.31s WALL (      29 calls)
     v_of_rho     :    139.35s CPU    152.14s WALL (      29 calls)
     newd         :    539.24s CPU    546.03s WALL (      29 calls)
     mix_rho      :      3.82s CPU      4.21s WALL (      29 calls)
     vdW_energy   :     13.80s CPU     15.50s WALL (      29 calls)
     vdW_ffts     :     68.72s CPU     75.09s WALL (      58 calls)
     vdW_v        :     16.95s CPU     17.84s WALL (      29 calls)

     Called by c_bands:
     init_us_2    :     17.42s CPU     17.75s WALL (     354 calls)
     cegterg      :   5616.54s CPU   6010.78s WALL (     174 calls)

     Called by *egterg:
     h_psi        :   2488.79s CPU   2849.29s WALL (     858 calls)
     s_psi        :    388.58s CPU    390.70s WALL (     858 calls)
     g_psi        :      4.86s CPU      4.84s WALL (     678 calls)
     cdiaghg      :   1513.48s CPU   1517.25s WALL (     846 calls)

     Called by h_psi:
     add_vuspsi   :    393.67s CPU    396.01s WALL (     858 calls)

     General routines
     calbec       :    569.68s CPU    572.17s WALL (    1032 calls)
     fft          :    154.50s CPU    165.12s WALL (    1914 calls)
     ffts         :      2.02s CPU      2.26s WALL (      58 calls)
     fftw         :   1771.17s CPU   2144.85s WALL (  470652 calls)
     interpolate  :      5.76s CPU      6.52s WALL (      58 calls)
     davcio       :      0.00s CPU      0.34s WALL (       6 calls)

     Parallel routines
     fft_scatter  :   1251.39s CPU   1543.41s WALL (  472624 calls)

     PWSCF        :     2h 6m CPU        2h15m WALL


   This run was terminated on:  15:52:57  24Aug2015            

=------------------------------------------------------------------------------=
   JOB DONE.
=------------------------------------------------------------------------------=
