Setting SGE environment for SCC

     Program PWSCF v.5.1.2 starts on  6Jul2015 at  4:45:13 

     This program is part of the open-source Quantum ESPRESSO suite
     for quantum simulation of materials; please cite
         "P. Giannozzi et al., J. Phys.:Condens. Matter 21 395502 (2009);
          URL http://www.quantum-espresso.org", 
     in publications or presentations arising from this work. More details at
     http://www.quantum-espresso.org/quote

     Parallel version (MPI), running on    32 processors
     R & G space division:  proc/nbgrp/npool/nimage =      32
     Reading input from hollow.H2.Au5859.d.2.3.phi.45.psi.90.in
Warning: card &IONS ignored
Warning: card / ignored
Warning: card &CELL ignored
Warning: card / ignored

     Current dimensions of program PWSCF are:
     Max number of different atomic species (ntypx) = 10
     Max number of k-points (npk) =  40000
     Max angular momentum in pseudopotentials (lmaxx) =  3

     IMPORTANT: XC functional enforced from input :
     Exchange-correlation      = VDW-DF ( 1  4  4  0 1 0)
     Any further DFT definition will be discarded
     Please, verify this is what you really want


     Subspace diagonalization in iterative solution of the eigenvalue problem:
     a serial algorithm will be used


     Parallelization info
     --------------------
     sticks:   dense  smooth     PW     G-vecs:    dense   smooth      PW
     Min         578     289     74               118518    41891    5486
     Max         579     290     75               118533    41932    5497
     Sum       18505    9265   2385              3792731  1341081  175711


     Title: 
     hollow.H2.Au5859.d.2.3.phi.45.psi.90                                       


     bravais-lattice index     =            8
     lattice parameter (alat)  =      24.1233  a.u.
     unit-cell volume          =   28076.2361 (a.u.)^3
     number of atoms/cell      =           75
     number of atomic types    =            3
     number of electrons       =       800.00
     number of Kohn-Sham states=          480
     kinetic-energy cutoff     =      50.0000  Ry
     charge density cutoff     =     400.0000  Ry
     convergence threshold     =      1.0E-08
     mixing beta               =       0.7000
     number of iterations used =            8  plain     mixing
     Exchange-correlation      = VDW-DF ( 1  4  4  0 1 0)

     celldm(1)=  24.123277  celldm(2)=   1.000000  celldm(3)=   2.000000
     celldm(4)=   0.000000  celldm(5)=   0.000000  celldm(6)=   0.000000

     crystal axes: (cart. coord. in units of alat)
               a(1) = (   1.000000   0.000000   0.000000 )  
               a(2) = (   0.000000   1.000000   0.000000 )  
               a(3) = (   0.000000   0.000000   2.000000 )  

     reciprocal axes: (cart. coord. in units 2 pi/alat)
               b(1) = (  1.000000  0.000000  0.000000 )  
               b(2) = (  0.000000  1.000000  0.000000 )  
               b(3) = (  0.000000  0.000000  0.500000 )  


     PseudoPot. # 1 for Au read from file:
     /home/scc/andrejb/qe/pseudo/Au.pbe-nd-van.UPF
     MD5 check sum: 458681b50f36d87ef23c61b04bba420a
     Pseudo is Ultrasoft + core correction, Zval = 11.0
     Generated by new atomic code, or converted to UPF format
     Using radial grid of  985 points,  3 beta functions with: 
                l(1) =   1
                l(2) =   2
                l(3) =   2
     Q(r) pseudized with  8 coefficients,  rinner =    1.100   1.100   1.100
                                                       1.100   1.100

     PseudoPot. # 2 for H  read from file:
     /home/scc/andrejb/qe/pseudo/H.pbe-van_ak.UPF
     MD5 check sum: 403db7282739603aa925980fa9b8608d
     Pseudo is Ultrasoft, Zval =  1.0
     Generated by new atomic code, or converted to UPF format
     Using radial grid of  615 points,  1 beta functions with: 
                l(1) =   0
     Q(r) pseudized with  8 coefficients,  rinner =    0.800

     PseudoPot. # 3 for O  read from file:
     /home/scc/andrejb/qe/pseudo/O.pbe-van_ak.UPF
     MD5 check sum: 4b8c549914a63cae506c6ff22b5af4fe
     Pseudo is Ultrasoft, Zval =  6.0
     Generated by new atomic code, or converted to UPF format
     Using radial grid of  737 points,  4 beta functions with: 
                l(1) =   0
                l(2) =   0
                l(3) =   1
                l(4) =   1
     Q(r) pseudized with  8 coefficients,  rinner =    0.800   0.800   0.800


     vdW kernel table read from file vdW_kernel_table
     MD5 check sum: 48e77a2e26edf626eeb0eaa751ad5cac

     atomic species   valence    mass     pseudopotential
        Au            11.00   196.96657     Au( 1.00)
        H              1.00     1.01000     H ( 1.00)
        O              6.00    16.00000     O ( 1.00)

     No symmetry found



   Cartesian axes

     site n.     atom                  positions (alat units)
         1           O   tau(   1) = (   0.1686617   0.0937550   0.8587041  )
         2           H   tau(   2) = (   0.1666051   0.1666105   0.8361597  )
         3           H   tau(   3) = (   0.1627583   0.0535643   0.7941418  )
         4           Au  tau(   4) = (   0.0000000   0.0000000   0.0000000  )
         5           Au  tau(   5) = (   0.3332217   0.0000000   0.0000000  )
         6           Au  tau(   6) = (   0.6664434   0.0000000   0.0000000  )
         7           Au  tau(   7) = (   0.1666109   0.1666109   0.0000000  )
         8           Au  tau(   8) = (   0.4998326   0.1666109   0.0000000  )
         9           Au  tau(   9) = (   0.8330542   0.1666109   0.0000000  )
        10           Au  tau(  10) = (   0.0000000   0.3332217   0.0000000  )
        11           Au  tau(  11) = (   0.3332217   0.3332217   0.0000000  )
        12           Au  tau(  12) = (   0.6664434   0.3332217   0.0000000  )
        13           Au  tau(  13) = (   0.1666109   0.4998326   0.0000000  )
        14           Au  tau(  14) = (   0.4998326   0.4998326   0.0000000  )
        15           Au  tau(  15) = (   0.8330542   0.4998326   0.0000000  )
        16           Au  tau(  16) = (   0.0000000   0.6664434   0.0000000  )
        17           Au  tau(  17) = (   0.3332217   0.6664434   0.0000000  )
        18           Au  tau(  18) = (   0.6664434   0.6664434   0.0000000  )
        19           Au  tau(  19) = (   0.1666109   0.8330542   0.0000000  )
        20           Au  tau(  20) = (   0.4998326   0.8330542   0.0000000  )
        21           Au  tau(  21) = (   0.8330542   0.8330542   0.0000000  )
        22           Au  tau(  22) = (   0.1666109   0.0000000   0.1666109  )
        23           Au  tau(  23) = (   0.4998326   0.0000000   0.1666109  )
        24           Au  tau(  24) = (   0.8330542   0.0000000   0.1666109  )
        25           Au  tau(  25) = (   0.0000000   0.1666109   0.1666109  )
        26           Au  tau(  26) = (   0.3332217   0.1666109   0.1666109  )
        27           Au  tau(  27) = (   0.6664434   0.1666109   0.1666109  )
        28           Au  tau(  28) = (   0.1666109   0.3332217   0.1666109  )
        29           Au  tau(  29) = (   0.4998326   0.3332217   0.1666109  )
        30           Au  tau(  30) = (   0.8330542   0.3332217   0.1666109  )
        31           Au  tau(  31) = (   0.0000000   0.4998326   0.1666109  )
        32           Au  tau(  32) = (   0.3332217   0.4998326   0.1666109  )
        33           Au  tau(  33) = (   0.6664434   0.4998326   0.1666109  )
        34           Au  tau(  34) = (   0.1666109   0.6664434   0.1666109  )
        35           Au  tau(  35) = (   0.4998326   0.6664434   0.1666109  )
        36           Au  tau(  36) = (   0.8330542   0.6664434   0.1666109  )
        37           Au  tau(  37) = (   0.0000000   0.8330542   0.1666109  )
        38           Au  tau(  38) = (   0.3332217   0.8330542   0.1666109  )
        39           Au  tau(  39) = (   0.6664434   0.8330542   0.1666109  )
        40           Au  tau(  40) = (  -0.0000182  -0.0000182   0.3335478  )
        41           Au  tau(  41) = (   0.3332215  -0.0000181   0.3335473  )
        42           Au  tau(  42) = (   0.6664447  -0.0000183   0.3335481  )
        43           Au  tau(  43) = (  -0.0000181   0.3332215   0.3335473  )
        44           Au  tau(  44) = (   0.3332215   0.3332215   0.3335468  )
        45           Au  tau(  45) = (   0.6664445   0.3332215   0.3335477  )
        46           Au  tau(  46) = (  -0.0000183   0.6664447   0.3335481  )
        47           Au  tau(  47) = (   0.3332215   0.6664445   0.3335477  )
        48           Au  tau(  48) = (   0.6664446   0.6664446   0.3335486  )
        49           Au  tau(  49) = (   0.1666097   0.1666097   0.3335483  )
        50           Au  tau(  50) = (   0.4998320   0.1666098   0.3335477  )
        51           Au  tau(  51) = (   0.8330732   0.1666096   0.3335480  )
        52           Au  tau(  52) = (   0.1666098   0.4998320   0.3335477  )
        53           Au  tau(  53) = (   0.4998322   0.4998322   0.3335470  )
        54           Au  tau(  54) = (   0.8330731   0.4998322   0.3335474  )
        55           Au  tau(  55) = (   0.1666096   0.8330732   0.3335480  )
        56           Au  tau(  56) = (   0.4998322   0.8330731   0.3335474  )
        57           Au  tau(  57) = (   0.8330731   0.8330731   0.3335478  )
        58           Au  tau(  58) = (   0.1666104  -0.0000111   0.4993095  )
        59           Au  tau(  59) = (   0.4998323  -0.0000112   0.4993099  )
        60           Au  tau(  60) = (   0.8330660  -0.0000111   0.4993009  )
        61           Au  tau(  61) = (  -0.0000111   0.1666104   0.4993095  )
        62           Au  tau(  62) = (   0.3332213   0.1666106   0.4993185  )
        63           Au  tau(  63) = (   0.6664437   0.1666106   0.4993187  )
        64           Au  tau(  64) = (   0.1666106   0.3332213   0.4993185  )
        65           Au  tau(  65) = (   0.4998324   0.3332216   0.4993185  )
        66           Au  tau(  66) = (   0.8330658   0.3332215   0.4993102  )
        67           Au  tau(  67) = (  -0.0000112   0.4998323   0.4993099  )
        68           Au  tau(  68) = (   0.3332216   0.4998324   0.4993185  )
        69           Au  tau(  69) = (   0.6664437   0.4998325   0.4993187  )
        70           Au  tau(  70) = (   0.1666106   0.6664437   0.4993187  )
        71           Au  tau(  71) = (   0.4998325   0.6664437   0.4993187  )
        72           Au  tau(  72) = (   0.8330658   0.6664438   0.4993102  )
        73           Au  tau(  73) = (  -0.0000111   0.8330660   0.4993009  )
        74           Au  tau(  74) = (   0.3332215   0.8330658   0.4993102  )
        75           Au  tau(  75) = (   0.6664438   0.8330658   0.4993102  )

     number of k points=     6  Marzari-Vanderbilt smearing, width (Ry)=  0.0200
                       cart. coord. in units 2pi/alat
        k(    1) = (   0.2500000   0.2500000   0.0833333), wk =   0.3333333
        k(    2) = (   0.2500000   0.2500000  -0.2500000), wk =   0.3333333
        k(    3) = (  -0.2500000  -0.2500000   0.0833333), wk =   0.3333333
        k(    4) = (  -0.2500000   0.2500000  -0.0833333), wk =   0.3333333
        k(    5) = (   0.2500000  -0.2500000  -0.0833333), wk =   0.3333333
        k(    6) = (  -0.2500000   0.2500000   0.2500000), wk =   0.3333333

     Dense  grid:  3792731 G-vectors     FFT dimensions: ( 160, 160, 320)

     Smooth grid:  1341081 G-vectors     FFT dimensions: ( 120, 120, 225)

     Largest allocated arrays     est. size (Mb)     dimensions
        Kohn-Sham Wavefunctions        38.58 Mb     (    5267,  480)
        NL pseudopotentials            76.03 Mb     (    5267,  946)
        Each V/rho on FFT grid          3.91 Mb     (  256000)
        Each G-vector array             0.90 Mb     (  118520)
        G-vector shells                 0.08 Mb     (   10286)
     Largest temporary arrays     est. size (Mb)     dimensions
        Auxiliary wavefunctions       154.31 Mb     (    5267, 1920)
        Each subspace H/S matrix       56.25 Mb     (    1920, 1920)
        Each <psi_i|beta_j> matrix      6.93 Mb     (     946,  480)
        Arrays for rho mixing          31.25 Mb     (  256000,    8)

     Initial potential from superposition of free atoms
     Check: negative starting charge=   -1.944995

     starting charge  799.16392, renormalised to  800.00000

     negative rho (up, down):  1.947E+00 0.000E+00


     ************************************************************************
     *
     * You are using vdW-DF for exchange-correlation in this calculation.
     * Please cite the following three references that made this development
     * possible:
     *
     *   M. Dion, H. Rydberg, E. Schroder, D. C. Langreth, and
     *   B. I. Lundqvist, Phys. Rev. Lett. 92, 246401 (2004).
     *
     *   T. Thonhauser, V. R. Cooper, S. Li, A. Puzder, P. Hyldgaard, and
     *   D. C. Langreth, Phys. Rev. B 76, 125112 (2007).
     *
     *   G. Roman-Perez and J. M. Soler, Phys. Rev. Lett. 103, 096102 (2009).
     *
     *
     * If you are using vdW-DF2, please also cite:
     *
     *   K. Lee, E. D. Murray, L. Kong, B. I. Lundqvist, and
     *   D. C. Langreth, Phys. Rev. B 82, 081101(R) (2010).
     *
     *
     * If you are calculating the stress with vdW-DF, please also cite:
     *
     *   R. Sabatini, E. Kucukbenli, B. Kolb, T. Thonhauser, and
     *   S. de Gironcoli, J. Phys.: Condens. Matter 24, 424209 (2012).
     *
     ************************************************************************

     Carrying out vdW-DF run using the following parameters:

     Nqs =      20    Nr_points =    1024   r_max =   100.000
     q_mesh =
               0.00001000     0.04494208     0.09755937     0.15916263
               0.23128650     0.31572767     0.41458969     0.53033537
               0.66584808     0.82450364     1.01025438     1.22772762
               1.48234092     1.78043706     2.12944203     2.53805004
               3.01644009     3.57652955     4.23227104     5.00000000

     Gradients computed in reciprocal space

     ************************************************************************


     Starting wfc are  654 randomized atomic wfcs

     total cpu time spent up to now is      109.6 secs

     Self-consistent Calculation

     iteration #  1     ecut=    50.00 Ry     beta=0.70
     Davidson diagonalization with overlap
     ethr =  1.00E-02,  avg # of iterations =  3.0

     Threshold (ethr) on eigenvalues was too large:
     Diagonalizing with lowered threshold

     Davidson diagonalization with overlap
     ethr =  4.28E-04,  avg # of iterations =  2.0

     negative rho (up, down):  1.948E+00 0.000E+00

     total cpu time spent up to now is      484.8 secs

     total energy              =   -7423.00482069 Ry
     Harris-Foulkes estimate   =   -7426.08426710 Ry
     estimated scf accuracy    <       3.80021091 Ry

     iteration #  2     ecut=    50.00 Ry     beta=0.70
     Davidson diagonalization with overlap
     ethr =  4.75E-04,  avg # of iterations = 12.0

     negative rho (up, down):  1.943E+00 0.000E+00

     total cpu time spent up to now is     1319.4 secs

     total energy              =   -7414.95768674 Ry
     Harris-Foulkes estimate   =   -7432.73552911 Ry
     estimated scf accuracy    <      92.98490895 Ry

     iteration #  3     ecut=    50.00 Ry     beta=0.70
     Davidson diagonalization with overlap
     ethr =  4.75E-04,  avg # of iterations =  6.0

     negative rho (up, down):  1.953E+00 0.000E+00

     total cpu time spent up to now is     1772.4 secs

     total energy              =   -7423.95558762 Ry
     Harris-Foulkes estimate   =   -7425.96896119 Ry
     estimated scf accuracy    <       8.91801007 Ry

     iteration #  4     ecut=    50.00 Ry     beta=0.70
     Davidson diagonalization with overlap
     ethr =  4.75E-04,  avg # of iterations =  6.7

     negative rho (up, down):  1.955E+00 0.000E+00

     total cpu time spent up to now is     2038.1 secs

     total energy              =   -7424.59457634 Ry
     Harris-Foulkes estimate   =   -7425.84455256 Ry
     estimated scf accuracy    <       8.43911066 Ry

     iteration #  5     ecut=    50.00 Ry     beta=0.70
     Davidson diagonalization with overlap
     ethr =  4.75E-04,  avg # of iterations =  6.0

     negative rho (up, down):  1.964E+00 0.000E+00

     total cpu time spent up to now is     2293.9 secs

     total energy              =   -7425.16118681 Ry
     Harris-Foulkes estimate   =   -7425.52157666 Ry
     estimated scf accuracy    <       2.48031998 Ry

     iteration #  6     ecut=    50.00 Ry     beta=0.70
     Davidson diagonalization with overlap
     ethr =  3.10E-04,  avg # of iterations =  5.3

     negative rho (up, down):  1.968E+00 0.000E+00

     total cpu time spent up to now is     2518.5 secs

     total energy              =   -7425.28352273 Ry
     Harris-Foulkes estimate   =   -7425.32543576 Ry
     estimated scf accuracy    <       0.13197525 Ry

     iteration #  7     ecut=    50.00 Ry     beta=0.70
     Davidson diagonalization with overlap
     ethr =  1.65E-05,  avg # of iterations = 12.8

     negative rho (up, down):  1.971E+00 0.000E+00

     total cpu time spent up to now is     2932.3 secs

     total energy              =   -7425.27577965 Ry
     Harris-Foulkes estimate   =   -7425.33153036 Ry
     estimated scf accuracy    <       0.30263793 Ry

     iteration #  8     ecut=    50.00 Ry     beta=0.70
     Davidson diagonalization with overlap
     ethr =  1.65E-05,  avg # of iterations =  3.0

     negative rho (up, down):  1.972E+00 0.000E+00

     total cpu time spent up to now is     3151.6 secs

     total energy              =   -7425.29177913 Ry
     Harris-Foulkes estimate   =   -7425.30522003 Ry
     estimated scf accuracy    <       0.04768086 Ry

     iteration #  9     ecut=    50.00 Ry     beta=0.70
     Davidson diagonalization with overlap
     ethr =  5.96E-06,  avg # of iterations =  5.3

     negative rho (up, down):  1.972E+00 0.000E+00

     total cpu time spent up to now is     3386.1 secs

     total energy              =   -7425.28969135 Ry
     Harris-Foulkes estimate   =   -7425.29965320 Ry
     estimated scf accuracy    <       0.03461825 Ry

     iteration # 10     ecut=    50.00 Ry     beta=0.70
     Davidson diagonalization with overlap
     ethr =  4.33E-06,  avg # of iterations =  4.8

     negative rho (up, down):  1.973E+00 0.000E+00

     total cpu time spent up to now is     3612.1 secs

     total energy              =   -7425.29060221 Ry
     Harris-Foulkes estimate   =   -7425.29383267 Ry
     estimated scf accuracy    <       0.01045944 Ry

     iteration # 11     ecut=    50.00 Ry     beta=0.70
     Davidson diagonalization with overlap
     ethr =  1.31E-06,  avg # of iterations =  7.2

     negative rho (up, down):  1.974E+00 0.000E+00

     total cpu time spent up to now is     3864.7 secs

     total energy              =   -7425.29054545 Ry
     Harris-Foulkes estimate   =   -7425.29198918 Ry
     estimated scf accuracy    <       0.00584954 Ry

     iteration # 12     ecut=    50.00 Ry     beta=0.70
     Davidson diagonalization with overlap
     ethr =  7.31E-07,  avg # of iterations =  2.8

     negative rho (up, down):  1.975E+00 0.000E+00

     total cpu time spent up to now is     4060.4 secs

     total energy              =   -7425.28966460 Ry
     Harris-Foulkes estimate   =   -7425.29101853 Ry
     estimated scf accuracy    <       0.00198880 Ry

     iteration # 13     ecut=    50.00 Ry     beta=0.70
     Davidson diagonalization with overlap
     ethr =  2.49E-07,  avg # of iterations =  6.5

     negative rho (up, down):  1.974E+00 0.000E+00

     total cpu time spent up to now is     4328.4 secs

     total energy              =   -7425.28968178 Ry
     Harris-Foulkes estimate   =   -7425.29049162 Ry
     estimated scf accuracy    <       0.00277762 Ry

     iteration # 14     ecut=    50.00 Ry     beta=0.70
     Davidson diagonalization with overlap
     ethr =  2.49E-07,  avg # of iterations =  2.0

     negative rho (up, down):  1.974E+00 0.000E+00

     total cpu time spent up to now is     4511.8 secs

     total energy              =   -7425.29000727 Ry
     Harris-Foulkes estimate   =   -7425.29016044 Ry
     estimated scf accuracy    <       0.00051887 Ry

     iteration # 15     ecut=    50.00 Ry     beta=0.70
     Davidson diagonalization with overlap
     ethr =  6.49E-08,  avg # of iterations =  2.0

     negative rho (up, down):  1.974E+00 0.000E+00

     total cpu time spent up to now is     4710.0 secs

     total energy              =   -7425.29000837 Ry
     Harris-Foulkes estimate   =   -7425.29020425 Ry
     estimated scf accuracy    <       0.00114453 Ry

     iteration # 16     ecut=    50.00 Ry     beta=0.70
     Davidson diagonalization with overlap
     ethr =  6.49E-08,  avg # of iterations =  2.0

     negative rho (up, down):  1.974E+00 0.000E+00

     total cpu time spent up to now is     4889.2 secs

     total energy              =   -7425.29006346 Ry
     Harris-Foulkes estimate   =   -7425.29015957 Ry
     estimated scf accuracy    <       0.00071074 Ry

     iteration # 17     ecut=    50.00 Ry     beta=0.70
     Davidson diagonalization with overlap
     ethr =  6.49E-08,  avg # of iterations =  1.0

     negative rho (up, down):  1.974E+00 0.000E+00

     total cpu time spent up to now is     5061.1 secs

     total energy              =   -7425.29010869 Ry
     Harris-Foulkes estimate   =   -7425.29012435 Ry
     estimated scf accuracy    <       0.00005995 Ry

     iteration # 18     ecut=    50.00 Ry     beta=0.70
     Davidson diagonalization with overlap
     ethr =  7.49E-09,  avg # of iterations =  2.0

     negative rho (up, down):  1.974E+00 0.000E+00

     total cpu time spent up to now is     5242.3 secs

     total energy              =   -7425.29011475 Ry
     Harris-Foulkes estimate   =   -7425.29011961 Ry
     estimated scf accuracy    <       0.00001885 Ry

     iteration # 19     ecut=    50.00 Ry     beta=0.70
     Davidson diagonalization with overlap
     ethr =  2.36E-09,  avg # of iterations =  2.0

     negative rho (up, down):  1.974E+00 0.000E+00

     total cpu time spent up to now is     5427.3 secs

     total energy              =   -7425.29011539 Ry
     Harris-Foulkes estimate   =   -7425.29012061 Ry
     estimated scf accuracy    <       0.00002560 Ry

     iteration # 20     ecut=    50.00 Ry     beta=0.70
     Davidson diagonalization with overlap
     ethr =  2.36E-09,  avg # of iterations =  2.0

     negative rho (up, down):  1.974E+00 0.000E+00

     total cpu time spent up to now is     5607.0 secs

     total energy              =   -7425.29011802 Ry
     Harris-Foulkes estimate   =   -7425.29011849 Ry
     estimated scf accuracy    <       0.00000190 Ry

     iteration # 21     ecut=    50.00 Ry     beta=0.70
     Davidson diagonalization with overlap
     ethr =  2.38E-10,  avg # of iterations =  3.0

     negative rho (up, down):  1.974E+00 0.000E+00

     total cpu time spent up to now is     5819.1 secs

     total energy              =   -7425.29011827 Ry
     Harris-Foulkes estimate   =   -7425.29011858 Ry
     estimated scf accuracy    <       0.00000138 Ry

     iteration # 22     ecut=    50.00 Ry     beta=0.70
     Davidson diagonalization with overlap
     ethr =  1.72E-10,  avg # of iterations =  2.0

     negative rho (up, down):  1.974E+00 0.000E+00

     total cpu time spent up to now is     6011.0 secs

     total energy              =   -7425.29011851 Ry
     Harris-Foulkes estimate   =   -7425.29011861 Ry
     estimated scf accuracy    <       0.00000075 Ry

     iteration # 23     ecut=    50.00 Ry     beta=0.70
     Davidson diagonalization with overlap
     ethr =  9.35E-11,  avg # of iterations =  3.0

     negative rho (up, down):  1.974E+00 0.000E+00

     total cpu time spent up to now is     6201.5 secs

     total energy              =   -7425.29011859 Ry
     Harris-Foulkes estimate   =   -7425.29011861 Ry
     estimated scf accuracy    <       0.00000007 Ry

     iteration # 24     ecut=    50.00 Ry     beta=0.70
     Davidson diagonalization with overlap
     ethr =  9.05E-12,  avg # of iterations =  3.0

     negative rho (up, down):  1.974E+00 0.000E+00

     total cpu time spent up to now is     6459.3 secs

     total energy              =   -7425.29011860 Ry
     Harris-Foulkes estimate   =   -7425.29011865 Ry
     estimated scf accuracy    <       0.00000029 Ry

     iteration # 25     ecut=    50.00 Ry     beta=0.70
     Davidson diagonalization with overlap
     ethr =  9.05E-12,  avg # of iterations =  3.0

     negative rho (up, down):  1.974E+00 0.000E+00

     total cpu time spent up to now is     6690.4 secs

     total energy              =   -7425.29011865 Ry
     Harris-Foulkes estimate   =   -7425.29011864 Ry
     estimated scf accuracy    <       0.00000007 Ry

     iteration # 26     ecut=    50.00 Ry     beta=0.70
     Davidson diagonalization with overlap
     ethr =  9.05E-12,  avg # of iterations =  2.0

     negative rho (up, down):  1.974E+00 0.000E+00

     total cpu time spent up to now is     6872.3 secs

     total energy              =   -7425.29011866 Ry
     Harris-Foulkes estimate   =   -7425.29011866 Ry
     estimated scf accuracy    <       0.00000011 Ry

     iteration # 27     ecut=    50.00 Ry     beta=0.70
     Davidson diagonalization with overlap
     ethr =  9.05E-12,  avg # of iterations =  1.0

     negative rho (up, down):  1.974E+00 0.000E+00

     total cpu time spent up to now is     7039.1 secs

     total energy              =   -7425.29011867 Ry
     Harris-Foulkes estimate   =   -7425.29011867 Ry
     estimated scf accuracy    <       0.00000003 Ry

     iteration # 28     ecut=    50.00 Ry     beta=0.70
     Davidson diagonalization with overlap
     ethr =  4.13E-12,  avg # of iterations =  2.0

     negative rho (up, down):  1.974E+00 0.000E+00

     total cpu time spent up to now is     7223.6 secs

     End of self-consistent calculation

          k = 0.2500 0.2500 0.0833 (167653 PWs)   bands (ev):

   -19.2025  -7.0200  -6.9154  -6.3870  -6.3864  -5.9572  -5.5481  -5.4551
    -5.4546  -5.2589  -5.2589  -5.1414  -5.1404  -5.0625  -5.0394  -4.9665
    -4.8817  -4.8777  -4.8389  -4.8388  -4.6779  -4.6616  -4.6603  -4.6599
    -4.6528  -4.5973  -4.5973  -4.5855  -4.5851  -4.5484  -4.5359  -4.5352
    -4.4936  -4.4935  -4.4601  -4.4588  -4.4071  -4.4065  -4.3958  -4.3950
    -4.3894  -4.3763  -4.3763  -4.3352  -4.3171  -4.3169  -4.3099  -4.3097
    -4.2773  -4.2279  -4.2129  -4.2125  -4.2089  -4.2084  -4.2010  -4.1951
    -4.1949  -4.1948  -4.1299  -4.1290  -4.0801  -4.0794  -4.0672  -4.0412
    -4.0411  -4.0215  -4.0188  -4.0183  -4.0136  -4.0110  -3.9621  -3.9621
    -3.9492  -3.9487  -3.8438  -3.8432  -3.8377  -3.8370  -3.8000  -3.7914
    -3.7759  -3.7468  -3.7467  -3.7182  -3.7177  -3.6963  -3.6960  -3.6827
    -3.6820  -3.6277  -3.6274  -3.6096  -3.5928  -3.5820  -3.5806  -3.5804
    -3.5788  -3.5519  -3.5516  -3.5155  -3.5154  -3.4931  -3.4926  -3.4597
    -3.4593  -3.4413  -3.4140  -3.4138  -3.3766  -3.3763  -3.3411  -3.3335
    -3.3329  -3.3190  -3.3185  -3.3137  -3.3135  -3.2753  -3.2643  -3.2324
    -3.2240  -3.2235  -3.2161  -3.2063  -3.2060  -3.2043  -3.1801  -3.1800
    -3.1589  -3.1583  -3.1579  -3.1312  -3.1312  -3.1236  -3.1208  -3.1207
    -3.0844  -3.0807  -3.0452  -3.0447  -3.0441  -3.0412  -3.0410  -2.9620
    -2.9520  -2.9477  -2.9472  -2.9461  -2.9456  -2.9411  -2.9408  -2.9405
    -2.9404  -2.9309  -2.9230  -2.9059  -2.9033  -2.9025  -2.9022  -2.8876
    -2.8832  -2.8450  -2.8443  -2.8440  -2.8402  -2.8395  -2.8216  -2.8213
    -2.8125  -2.8125  -2.8103  -2.7506  -2.7505  -2.7452  -2.7452  -2.7401
    -2.7399  -2.7118  -2.6530  -2.6515  -2.6513  -2.6493  -2.6381  -2.6357
    -2.6311  -2.6201  -2.6199  -2.5833  -2.5824  -2.5743  -2.5734  -2.5732
    -2.5727  -2.5333  -2.5330  -2.5233  -2.5233  -2.5218  -2.5214  -2.4796
    -2.4637  -2.4581  -2.4049  -2.4045  -2.3862  -2.3843  -2.3792  -2.3791
    -2.3307  -2.3298  -2.3068  -2.2904  -2.2763  -2.2755  -2.2751  -2.2533
    -2.2531  -2.2434  -2.2269  -2.1866  -2.1859  -2.1717  -2.1711  -2.1708
    -2.1604  -2.1601  -2.1453  -2.1446  -2.1445  -2.1402  -2.1355  -2.1344
    -2.1341  -2.1227  -2.1222  -2.1046  -2.1044  -2.1024  -2.0961  -2.0935
    -2.0931  -2.0695  -2.0690  -2.0579  -2.0558  -2.0514  -2.0507  -2.0128
    -1.9791  -1.9785  -1.9433  -1.9260  -1.9257  -1.9153  -1.9146  -1.8916
    -1.8910  -1.8768  -1.8762  -1.8749  -1.8748  -1.8718  -1.8711  -1.8393
    -1.8391  -1.8388  -1.7930  -1.7925  -1.7529  -1.7525  -1.7054  -1.7051
    -1.6930  -1.6705  -1.6657  -1.6625  -1.6467  -1.6443  -1.6274  -1.6267
    -1.6225  -1.6216  -1.6204  -1.6199  -1.6193  -1.6171  -1.5969  -1.5968
    -1.5862  -1.5689  -1.5502  -1.5501  -1.5234  -1.5232  -1.5208  -1.5201
    -1.5172  -1.5143  -1.4927  -1.4922  -1.4780  -1.4768  -1.4644  -1.4542
    -1.4409  -1.4402  -1.4096  -1.4092  -1.4014  -1.4012  -1.3662  -1.3653
    -1.3576  -1.3570  -1.3486  -1.3482  -1.3269  -1.3265  -1.3147  -1.3081
    -1.3077  -1.2948  -1.2947  -1.2939  -1.2936  -1.2794  -1.2691  -1.2682
    -1.2610  -1.2608  -1.2492  -1.2446  -1.2440  -1.2373  -1.2098  -1.1978
    -1.1957  -1.1915  -1.1883  -1.1877  -1.1876  -1.1486  -1.1323  -1.1312
    -1.1311  -1.1310  -1.1266  -1.1261  -1.1215  -1.1089  -1.1059  -1.0699
    -1.0693  -1.0623  -1.0623  -1.0395  -1.0392  -1.0294  -0.9997  -0.9920
    -0.9649  -0.9643  -0.9366  -0.9365  -0.9341  -0.9332  -0.9313  -0.9276
    -0.9245  -0.9224  -0.9180  -0.9176  -0.8858  -0.8854  -0.8680  -0.8668
    -0.8622  -0.8616  -0.8603  -0.8601  -0.8414  -0.5657  -0.5547  -0.5005
    -0.4980  -0.4601  -0.2991  -0.2344  -0.2338  -0.2029   0.0849   0.0853
     0.4138   0.4165   0.5140   0.5142   0.5548   0.5561   0.6980   0.6994
     0.8226   0.8247   0.9106   1.5100   1.5280   1.5290   1.5672   1.5742
     1.6139   1.6209   1.6977   1.6990   1.9056   1.9061   2.1392   2.2193
     2.2224   2.2367   2.6136   2.6202   2.6918   2.6918   2.6982   2.6991
     2.8499   2.8510   2.8954   2.9921   2.9954   3.2257   3.2274   3.3604
     3.3870   3.3883   3.6572   3.6597   3.7704   3.7909   3.7911   3.8406
     3.8743   3.9774   3.9791   4.2139   4.2164   4.3016   4.3039   4.4285
     4.4298   4.4461   4.4548   4.5904   4.9307   5.2500   5.2730   5.3565
     5.3626   5.4738   5.5382   5.5405   5.5982   5.6492   5.6543   5.6726
     5.6970   5.7082   5.7090   5.7527   5.9744   5.9891   6.0238   6.0376
     6.0475   6.0517   6.0595   6.0610   6.0641   6.1063   6.1322   6.1528

          k = 0.2500 0.2500-0.2500 (167588 PWs)   bands (ev):

   -19.2025  -7.0200  -6.9154  -6.3870  -6.3864  -5.9572  -5.5481  -5.4551
    -5.4546  -5.2589  -5.2589  -5.1414  -5.1404  -5.0625  -5.0394  -4.9665
    -4.8817  -4.8777  -4.8389  -4.8388  -4.6779  -4.6616  -4.6603  -4.6599
    -4.6528  -4.5974  -4.5973  -4.5855  -4.5851  -4.5484  -4.5359  -4.5352
    -4.4936  -4.4935  -4.4601  -4.4588  -4.4071  -4.4065  -4.3958  -4.3950
    -4.3894  -4.3763  -4.3763  -4.3352  -4.3171  -4.3169  -4.3099  -4.3097
    -4.2773  -4.2279  -4.2129  -4.2125  -4.2089  -4.2084  -4.2010  -4.1951
    -4.1949  -4.1948  -4.1299  -4.1290  -4.0801  -4.0794  -4.0672  -4.0412
    -4.0411  -4.0215  -4.0188  -4.0183  -4.0136  -4.0110  -3.9621  -3.9621
    -3.9491  -3.9487  -3.8438  -3.8432  -3.8377  -3.8370  -3.8000  -3.7914
    -3.7759  -3.7468  -3.7467  -3.7182  -3.7177  -3.6963  -3.6960  -3.6827
    -3.6820  -3.6277  -3.6274  -3.6096  -3.5928  -3.5820  -3.5806  -3.5804
    -3.5788  -3.5519  -3.5516  -3.5155  -3.5154  -3.4931  -3.4926  -3.4597
    -3.4593  -3.4413  -3.4140  -3.4138  -3.3766  -3.3763  -3.3411  -3.3335
    -3.3329  -3.3190  -3.3185  -3.3137  -3.3135  -3.2753  -3.2643  -3.2324
    -3.2240  -3.2235  -3.2161  -3.2063  -3.2060  -3.2043  -3.1801  -3.1800
    -3.1589  -3.1583  -3.1579  -3.1312  -3.1312  -3.1236  -3.1208  -3.1207
    -3.0844  -3.0807  -3.0452  -3.0447  -3.0440  -3.0412  -3.0410  -2.9620
    -2.9520  -2.9477  -2.9472  -2.9461  -2.9456  -2.9411  -2.9408  -2.9405
    -2.9404  -2.9309  -2.9230  -2.9060  -2.9033  -2.9025  -2.9022  -2.8876
    -2.8832  -2.8450  -2.8443  -2.8440  -2.8402  -2.8395  -2.8216  -2.8213
    -2.8125  -2.8125  -2.8103  -2.7506  -2.7505  -2.7452  -2.7452  -2.7401
    -2.7399  -2.7118  -2.6530  -2.6515  -2.6513  -2.6493  -2.6381  -2.6357
    -2.6311  -2.6201  -2.6199  -2.5833  -2.5824  -2.5743  -2.5734  -2.5732
    -2.5726  -2.5333  -2.5330  -2.5233  -2.5233  -2.5218  -2.5214  -2.4796
    -2.4637  -2.4581  -2.4049  -2.4045  -2.3862  -2.3843  -2.3792  -2.3791
    -2.3307  -2.3298  -2.3068  -2.2904  -2.2763  -2.2755  -2.2751  -2.2533
    -2.2531  -2.2434  -2.2269  -2.1866  -2.1858  -2.1717  -2.1711  -2.1708
    -2.1604  -2.1601  -2.1453  -2.1446  -2.1445  -2.1403  -2.1355  -2.1344
    -2.1341  -2.1227  -2.1222  -2.1046  -2.1044  -2.1024  -2.0961  -2.0934
    -2.0931  -2.0695  -2.0690  -2.0579  -2.0558  -2.0514  -2.0507  -2.0128
    -1.9791  -1.9785  -1.9433  -1.9260  -1.9257  -1.9153  -1.9146  -1.8916
    -1.8910  -1.8768  -1.8762  -1.8749  -1.8748  -1.8718  -1.8711  -1.8393
    -1.8391  -1.8388  -1.7930  -1.7925  -1.7529  -1.7525  -1.7054  -1.7051
    -1.6930  -1.6705  -1.6657  -1.6625  -1.6467  -1.6443  -1.6274  -1.6267
    -1.6225  -1.6215  -1.6204  -1.6199  -1.6193  -1.6171  -1.5969  -1.5968
    -1.5862  -1.5689  -1.5502  -1.5501  -1.5234  -1.5232  -1.5208  -1.5201
    -1.5173  -1.5143  -1.4927  -1.4922  -1.4780  -1.4768  -1.4644  -1.4542
    -1.4409  -1.4402  -1.4097  -1.4092  -1.4014  -1.4012  -1.3662  -1.3653
    -1.3576  -1.3570  -1.3486  -1.3482  -1.3269  -1.3265  -1.3147  -1.3082
    -1.3077  -1.2948  -1.2947  -1.2939  -1.2936  -1.2794  -1.2692  -1.2682
    -1.2610  -1.2608  -1.2492  -1.2446  -1.2440  -1.2373  -1.2098  -1.1978
    -1.1957  -1.1915  -1.1883  -1.1877  -1.1876  -1.1486  -1.1323  -1.1312
    -1.1311  -1.1310  -1.1266  -1.1261  -1.1215  -1.1089  -1.1059  -1.0699
    -1.0693  -1.0623  -1.0623  -1.0395  -1.0392  -1.0294  -0.9997  -0.9920
    -0.9649  -0.9643  -0.9366  -0.9365  -0.9341  -0.9332  -0.9314  -0.9276
    -0.9245  -0.9224  -0.9180  -0.9176  -0.8858  -0.8854  -0.8680  -0.8668
    -0.8622  -0.8616  -0.8603  -0.8600  -0.8414  -0.5657  -0.5547  -0.5005
    -0.4980  -0.4601  -0.2991  -0.2344  -0.2338  -0.2029   0.0849   0.0853
     0.4138   0.4165   0.5140   0.5142   0.5548   0.5561   0.6980   0.6994
     0.8226   0.8247   0.9106   1.5100   1.5280   1.5290   1.5672   1.5742
     1.6139   1.6209   1.6977   1.6990   1.9056   1.9061   2.1392   2.2193
     2.2224   2.2367   2.6136   2.6202   2.6918   2.6918   2.6982   2.6991
     2.8499   2.8510   2.8954   2.9921   2.9955   3.2257   3.2274   3.3604
     3.3870   3.3883   3.6572   3.6597   3.7704   3.7909   3.7911   3.8407
     3.8743   3.9774   3.9791   4.2138   4.2164   4.3016   4.3039   4.4285
     4.4298   4.4461   4.4547   4.5904   4.9273   5.2497   5.2709   5.3563
     5.3622   5.4634   5.5383   5.5405   5.6049   5.6474   5.6551   5.6690
     5.7082   5.7090   5.7339   5.7531   5.9823   5.9959   6.0240   6.0379
     6.0478   6.0517   6.0597   6.0611   6.0876   6.1236   6.1401   6.1557

          k =-0.2500-0.2500 0.0833 (167653 PWs)   bands (ev):

   -19.2025  -7.0200  -6.9154  -6.3870  -6.3864  -5.9572  -5.5481  -5.4551
    -5.4546  -5.2589  -5.2589  -5.1414  -5.1404  -5.0625  -5.0394  -4.9665
    -4.8817  -4.8777  -4.8389  -4.8388  -4.6779  -4.6616  -4.6603  -4.6599
    -4.6528  -4.5973  -4.5973  -4.5855  -4.5851  -4.5484  -4.5359  -4.5352
    -4.4936  -4.4935  -4.4601  -4.4588  -4.4071  -4.4065  -4.3958  -4.3950
    -4.3894  -4.3763  -4.3763  -4.3352  -4.3171  -4.3169  -4.3099  -4.3097
    -4.2773  -4.2279  -4.2129  -4.2125  -4.2089  -4.2084  -4.2010  -4.1951
    -4.1949  -4.1948  -4.1299  -4.1290  -4.0801  -4.0794  -4.0672  -4.0412
    -4.0411  -4.0215  -4.0188  -4.0183  -4.0136  -4.0110  -3.9621  -3.9621
    -3.9492  -3.9487  -3.8438  -3.8432  -3.8377  -3.8370  -3.8000  -3.7914
    -3.7759  -3.7468  -3.7467  -3.7182  -3.7177  -3.6963  -3.6960  -3.6827
    -3.6820  -3.6277  -3.6274  -3.6096  -3.5928  -3.5820  -3.5806  -3.5804
    -3.5788  -3.5519  -3.5516  -3.5155  -3.5154  -3.4931  -3.4926  -3.4597
    -3.4593  -3.4413  -3.4140  -3.4138  -3.3766  -3.3763  -3.3411  -3.3335
    -3.3329  -3.3190  -3.3185  -3.3137  -3.3135  -3.2753  -3.2643  -3.2324
    -3.2240  -3.2235  -3.2161  -3.2063  -3.2060  -3.2043  -3.1801  -3.1800
    -3.1589  -3.1583  -3.1579  -3.1312  -3.1312  -3.1236  -3.1208  -3.1207
    -3.0844  -3.0807  -3.0452  -3.0447  -3.0441  -3.0412  -3.0410  -2.9620
    -2.9520  -2.9477  -2.9472  -2.9461  -2.9456  -2.9411  -2.9408  -2.9405
    -2.9404  -2.9309  -2.9230  -2.9059  -2.9033  -2.9025  -2.9022  -2.8876
    -2.8832  -2.8450  -2.8443  -2.8440  -2.8402  -2.8395  -2.8216  -2.8213
    -2.8125  -2.8125  -2.8103  -2.7506  -2.7505  -2.7452  -2.7452  -2.7401
    -2.7399  -2.7118  -2.6530  -2.6515  -2.6513  -2.6493  -2.6381  -2.6357
    -2.6311  -2.6201  -2.6199  -2.5833  -2.5824  -2.5743  -2.5734  -2.5732
    -2.5727  -2.5333  -2.5330  -2.5233  -2.5233  -2.5218  -2.5214  -2.4796
    -2.4637  -2.4581  -2.4049  -2.4045  -2.3862  -2.3843  -2.3792  -2.3791
    -2.3307  -2.3298  -2.3068  -2.2904  -2.2763  -2.2755  -2.2751  -2.2533
    -2.2531  -2.2434  -2.2269  -2.1866  -2.1859  -2.1717  -2.1711  -2.1708
    -2.1604  -2.1601  -2.1453  -2.1446  -2.1445  -2.1402  -2.1355  -2.1344
    -2.1341  -2.1227  -2.1222  -2.1046  -2.1044  -2.1024  -2.0961  -2.0935
    -2.0931  -2.0695  -2.0690  -2.0579  -2.0558  -2.0514  -2.0507  -2.0128
    -1.9791  -1.9785  -1.9433  -1.9260  -1.9257  -1.9153  -1.9146  -1.8916
    -1.8910  -1.8768  -1.8762  -1.8749  -1.8748  -1.8718  -1.8711  -1.8393
    -1.8391  -1.8388  -1.7930  -1.7925  -1.7529  -1.7525  -1.7054  -1.7051
    -1.6930  -1.6705  -1.6657  -1.6625  -1.6467  -1.6443  -1.6274  -1.6267
    -1.6225  -1.6216  -1.6204  -1.6199  -1.6193  -1.6171  -1.5969  -1.5968
    -1.5862  -1.5689  -1.5502  -1.5501  -1.5234  -1.5232  -1.5208  -1.5201
    -1.5172  -1.5143  -1.4927  -1.4922  -1.4780  -1.4768  -1.4644  -1.4542
    -1.4409  -1.4402  -1.4096  -1.4092  -1.4014  -1.4012  -1.3662  -1.3653
    -1.3576  -1.3570  -1.3486  -1.3482  -1.3269  -1.3265  -1.3147  -1.3081
    -1.3077  -1.2948  -1.2947  -1.2939  -1.2936  -1.2794  -1.2691  -1.2682
    -1.2610  -1.2608  -1.2492  -1.2446  -1.2440  -1.2373  -1.2098  -1.1978
    -1.1957  -1.1915  -1.1883  -1.1877  -1.1876  -1.1486  -1.1323  -1.1312
    -1.1311  -1.1310  -1.1266  -1.1261  -1.1215  -1.1089  -1.1059  -1.0699
    -1.0693  -1.0623  -1.0623  -1.0395  -1.0392  -1.0294  -0.9997  -0.9920
    -0.9649  -0.9643  -0.9366  -0.9365  -0.9341  -0.9332  -0.9313  -0.9276
    -0.9245  -0.9224  -0.9180  -0.9176  -0.8858  -0.8854  -0.8680  -0.8668
    -0.8622  -0.8616  -0.8603  -0.8601  -0.8414  -0.5657  -0.5547  -0.5005
    -0.4980  -0.4601  -0.2991  -0.2344  -0.2338  -0.2029   0.0849   0.0853
     0.4138   0.4165   0.5140   0.5142   0.5548   0.5561   0.6980   0.6994
     0.8226   0.8247   0.9106   1.5100   1.5280   1.5290   1.5672   1.5742
     1.6139   1.6209   1.6977   1.6990   1.9056   1.9061   2.1392   2.2193
     2.2224   2.2367   2.6136   2.6202   2.6918   2.6918   2.6982   2.6991
     2.8499   2.8510   2.8954   2.9921   2.9954   3.2257   3.2274   3.3604
     3.3870   3.3883   3.6572   3.6597   3.7704   3.7909   3.7911   3.8406
     3.8743   3.9774   3.9791   4.2139   4.2164   4.3016   4.3039   4.4285
     4.4298   4.4461   4.4548   4.5904   4.9307   5.2501   5.2731   5.3564
     5.3626   5.4720   5.5383   5.5405   5.5993   5.6495   5.6542   5.6744
     5.6970   5.7082   5.7090   5.7527   5.9741   5.9889   6.0238   6.0376
     6.0475   6.0517   6.0594   6.0610   6.0642   6.1047   6.1326   6.1524

          k =-0.2500 0.2500-0.0833 (167653 PWs)   bands (ev):

   -19.2025  -7.0200  -6.9154  -6.3870  -6.3864  -5.9572  -5.5481  -5.4551
    -5.4546  -5.2589  -5.2589  -5.1413  -5.1404  -5.0625  -5.0394  -4.9665
    -4.8817  -4.8777  -4.8390  -4.8388  -4.6779  -4.6616  -4.6603  -4.6599
    -4.6528  -4.5973  -4.5973  -4.5856  -4.5851  -4.5484  -4.5359  -4.5352
    -4.4936  -4.4935  -4.4601  -4.4588  -4.4072  -4.4064  -4.3958  -4.3950
    -4.3894  -4.3763  -4.3763  -4.3352  -4.3171  -4.3169  -4.3099  -4.3096
    -4.2773  -4.2279  -4.2129  -4.2124  -4.2089  -4.2084  -4.2010  -4.1951
    -4.1949  -4.1948  -4.1299  -4.1290  -4.0799  -4.0795  -4.0672  -4.0412
    -4.0411  -4.0215  -4.0188  -4.0182  -4.0136  -4.0110  -3.9621  -3.9620
    -3.9492  -3.9487  -3.8439  -3.8432  -3.8377  -3.8370  -3.8000  -3.7914
    -3.7759  -3.7468  -3.7467  -3.7182  -3.7177  -3.6963  -3.6960  -3.6827
    -3.6820  -3.6277  -3.6274  -3.6096  -3.5928  -3.5820  -3.5806  -3.5804
    -3.5788  -3.5519  -3.5516  -3.5155  -3.5154  -3.4931  -3.4926  -3.4597
    -3.4593  -3.4413  -3.4140  -3.4138  -3.3766  -3.3762  -3.3411  -3.3335
    -3.3329  -3.3190  -3.3185  -3.3137  -3.3135  -3.2753  -3.2643  -3.2324
    -3.2240  -3.2235  -3.2161  -3.2063  -3.2059  -3.2043  -3.1801  -3.1800
    -3.1588  -3.1585  -3.1577  -3.1312  -3.1312  -3.1236  -3.1208  -3.1207
    -3.0844  -3.0807  -3.0452  -3.0447  -3.0441  -3.0412  -3.0410  -2.9620
    -2.9520  -2.9477  -2.9471  -2.9460  -2.9457  -2.9411  -2.9408  -2.9406
    -2.9403  -2.9309  -2.9230  -2.9059  -2.9033  -2.9025  -2.9022  -2.8876
    -2.8832  -2.8450  -2.8443  -2.8440  -2.8402  -2.8395  -2.8217  -2.8213
    -2.8125  -2.8125  -2.8103  -2.7506  -2.7505  -2.7453  -2.7452  -2.7401
    -2.7400  -2.7118  -2.6530  -2.6517  -2.6511  -2.6493  -2.6381  -2.6357
    -2.6311  -2.6201  -2.6199  -2.5833  -2.5824  -2.5743  -2.5734  -2.5731
    -2.5727  -2.5333  -2.5330  -2.5233  -2.5233  -2.5218  -2.5214  -2.4796
    -2.4637  -2.4581  -2.4049  -2.4045  -2.3862  -2.3843  -2.3792  -2.3791
    -2.3307  -2.3298  -2.3068  -2.2904  -2.2762  -2.2755  -2.2751  -2.2533
    -2.2531  -2.2434  -2.2269  -2.1866  -2.1858  -2.1718  -2.1711  -2.1708
    -2.1604  -2.1601  -2.1453  -2.1446  -2.1445  -2.1403  -2.1355  -2.1344
    -2.1341  -2.1227  -2.1222  -2.1046  -2.1044  -2.1024  -2.0961  -2.0935
    -2.0931  -2.0695  -2.0690  -2.0579  -2.0558  -2.0514  -2.0507  -2.0128
    -1.9792  -1.9784  -1.9433  -1.9261  -1.9257  -1.9153  -1.9146  -1.8916
    -1.8910  -1.8768  -1.8762  -1.8749  -1.8748  -1.8718  -1.8711  -1.8393
    -1.8391  -1.8388  -1.7930  -1.7925  -1.7529  -1.7525  -1.7054  -1.7051
    -1.6930  -1.6705  -1.6657  -1.6625  -1.6467  -1.6443  -1.6275  -1.6267
    -1.6225  -1.6215  -1.6204  -1.6199  -1.6193  -1.6171  -1.5969  -1.5968
    -1.5862  -1.5689  -1.5502  -1.5501  -1.5234  -1.5232  -1.5208  -1.5201
    -1.5173  -1.5143  -1.4927  -1.4922  -1.4780  -1.4768  -1.4644  -1.4542
    -1.4409  -1.4402  -1.4096  -1.4092  -1.4013  -1.4012  -1.3661  -1.3653
    -1.3576  -1.3570  -1.3486  -1.3482  -1.3269  -1.3265  -1.3147  -1.3082
    -1.3077  -1.2948  -1.2947  -1.2939  -1.2936  -1.2794  -1.2691  -1.2682
    -1.2610  -1.2608  -1.2493  -1.2445  -1.2441  -1.2373  -1.2095  -1.1977
    -1.1959  -1.1915  -1.1882  -1.1877  -1.1876  -1.1486  -1.1323  -1.1312
    -1.1311  -1.1309  -1.1265  -1.1262  -1.1215  -1.1090  -1.1059  -1.0699
    -1.0693  -1.0623  -1.0623  -1.0395  -1.0393  -1.0294  -0.9997  -0.9920
    -0.9649  -0.9643  -0.9367  -0.9364  -0.9341  -0.9332  -0.9313  -0.9276
    -0.9245  -0.9224  -0.9180  -0.9176  -0.8858  -0.8854  -0.8680  -0.8668
    -0.8622  -0.8616  -0.8603  -0.8600  -0.8414  -0.5657  -0.5547  -0.5005
    -0.4981  -0.4601  -0.2991  -0.2344  -0.2338  -0.2029   0.0848   0.0853
     0.4139   0.4165   0.5140   0.5142   0.5548   0.5561   0.6979   0.6995
     0.8226   0.8247   0.9106   1.5100   1.5280   1.5291   1.5673   1.5742
     1.6139   1.6209   1.6977   1.6991   1.9055   1.9061   2.1392   2.2193
     2.2224   2.2367   2.6137   2.6201   2.6918   2.6918   2.6982   2.6991
     2.8499   2.8510   2.8954   2.9918   2.9956   3.2256   3.2274   3.3604
     3.3870   3.3884   3.6570   3.6599   3.7706   3.7909   3.7911   3.8411
     3.8737   3.9774   3.9791   4.2138   4.2164   4.3018   4.3038   4.4286
     4.4298   4.4464   4.4547   4.5897   4.9311   5.2493   5.2743   5.3563
     5.3623   5.4745   5.5381   5.5407   5.5999   5.6483   5.6543   5.6730
     5.6956   5.7081   5.7091   5.7527   5.9751   5.9867   6.0232   6.0376
     6.0475   6.0516   6.0595   6.0610   6.0641   6.1081   6.1313   6.1511

          k = 0.2500-0.2500-0.0833 (167653 PWs)   bands (ev):

   -19.2025  -7.0200  -6.9154  -6.3870  -6.3864  -5.9572  -5.5481  -5.4551
    -5.4546  -5.2589  -5.2589  -5.1413  -5.1404  -5.0625  -5.0394  -4.9665
    -4.8817  -4.8777  -4.8390  -4.8388  -4.6779  -4.6616  -4.6603  -4.6599
    -4.6528  -4.5973  -4.5973  -4.5856  -4.5851  -4.5484  -4.5359  -4.5352
    -4.4936  -4.4935  -4.4601  -4.4588  -4.4072  -4.4064  -4.3958  -4.3950
    -4.3894  -4.3763  -4.3763  -4.3352  -4.3171  -4.3169  -4.3099  -4.3096
    -4.2773  -4.2279  -4.2129  -4.2124  -4.2089  -4.2084  -4.2010  -4.1951
    -4.1949  -4.1948  -4.1299  -4.1290  -4.0799  -4.0795  -4.0672  -4.0412
    -4.0411  -4.0215  -4.0188  -4.0182  -4.0136  -4.0110  -3.9621  -3.9620
    -3.9492  -3.9487  -3.8439  -3.8432  -3.8377  -3.8370  -3.8000  -3.7914
    -3.7759  -3.7468  -3.7467  -3.7182  -3.7177  -3.6963  -3.6960  -3.6827
    -3.6820  -3.6277  -3.6274  -3.6096  -3.5928  -3.5820  -3.5806  -3.5804
    -3.5788  -3.5519  -3.5516  -3.5155  -3.5154  -3.4931  -3.4926  -3.4597
    -3.4593  -3.4413  -3.4140  -3.4138  -3.3766  -3.3762  -3.3411  -3.3335
    -3.3329  -3.3190  -3.3185  -3.3137  -3.3135  -3.2753  -3.2643  -3.2324
    -3.2240  -3.2235  -3.2161  -3.2063  -3.2059  -3.2043  -3.1801  -3.1800
    -3.1588  -3.1585  -3.1577  -3.1312  -3.1312  -3.1236  -3.1208  -3.1207
    -3.0844  -3.0807  -3.0452  -3.0447  -3.0441  -3.0412  -3.0410  -2.9620
    -2.9520  -2.9477  -2.9471  -2.9460  -2.9457  -2.9411  -2.9408  -2.9406
    -2.9403  -2.9309  -2.9230  -2.9059  -2.9033  -2.9025  -2.9022  -2.8876
    -2.8832  -2.8450  -2.8443  -2.8440  -2.8402  -2.8395  -2.8217  -2.8213
    -2.8125  -2.8125  -2.8103  -2.7506  -2.7505  -2.7453  -2.7452  -2.7401
    -2.7400  -2.7118  -2.6530  -2.6517  -2.6511  -2.6493  -2.6381  -2.6357
    -2.6311  -2.6201  -2.6199  -2.5833  -2.5824  -2.5743  -2.5734  -2.5731
    -2.5727  -2.5333  -2.5330  -2.5233  -2.5233  -2.5218  -2.5214  -2.4796
    -2.4637  -2.4581  -2.4049  -2.4045  -2.3862  -2.3843  -2.3792  -2.3791
    -2.3307  -2.3298  -2.3068  -2.2904  -2.2762  -2.2755  -2.2751  -2.2533
    -2.2531  -2.2434  -2.2269  -2.1866  -2.1858  -2.1718  -2.1711  -2.1708
    -2.1604  -2.1601  -2.1453  -2.1446  -2.1445  -2.1403  -2.1355  -2.1344
    -2.1341  -2.1227  -2.1222  -2.1046  -2.1044  -2.1024  -2.0961  -2.0935
    -2.0931  -2.0695  -2.0690  -2.0579  -2.0558  -2.0514  -2.0507  -2.0128
    -1.9792  -1.9784  -1.9433  -1.9261  -1.9257  -1.9153  -1.9146  -1.8916
    -1.8910  -1.8768  -1.8762  -1.8749  -1.8748  -1.8718  -1.8711  -1.8393
    -1.8391  -1.8388  -1.7930  -1.7925  -1.7529  -1.7525  -1.7054  -1.7051
    -1.6930  -1.6705  -1.6657  -1.6625  -1.6467  -1.6443  -1.6275  -1.6267
    -1.6225  -1.6215  -1.6204  -1.6199  -1.6193  -1.6171  -1.5969  -1.5968
    -1.5862  -1.5689  -1.5502  -1.5501  -1.5234  -1.5232  -1.5208  -1.5201
    -1.5173  -1.5143  -1.4927  -1.4922  -1.4780  -1.4768  -1.4644  -1.4542
    -1.4409  -1.4402  -1.4096  -1.4092  -1.4013  -1.4012  -1.3661  -1.3653
    -1.3576  -1.3570  -1.3486  -1.3482  -1.3269  -1.3265  -1.3147  -1.3082
    -1.3077  -1.2948  -1.2947  -1.2939  -1.2936  -1.2794  -1.2691  -1.2682
    -1.2610  -1.2608  -1.2493  -1.2445  -1.2441  -1.2373  -1.2095  -1.1977
    -1.1959  -1.1915  -1.1882  -1.1877  -1.1876  -1.1486  -1.1323  -1.1312
    -1.1311  -1.1309  -1.1265  -1.1262  -1.1215  -1.1090  -1.1059  -1.0699
    -1.0693  -1.0623  -1.0623  -1.0395  -1.0393  -1.0294  -0.9997  -0.9920
    -0.9649  -0.9643  -0.9367  -0.9364  -0.9341  -0.9332  -0.9313  -0.9276
    -0.9245  -0.9224  -0.9180  -0.9176  -0.8858  -0.8854  -0.8680  -0.8668
    -0.8622  -0.8616  -0.8603  -0.8600  -0.8414  -0.5657  -0.5547  -0.5005
    -0.4981  -0.4601  -0.2991  -0.2344  -0.2338  -0.2029   0.0848   0.0853
     0.4139   0.4165   0.5140   0.5142   0.5548   0.5561   0.6979   0.6995
     0.8226   0.8247   0.9106   1.5100   1.5280   1.5291   1.5673   1.5742
     1.6139   1.6209   1.6977   1.6991   1.9055   1.9061   2.1392   2.2193
     2.2224   2.2367   2.6137   2.6201   2.6918   2.6918   2.6982   2.6991
     2.8499   2.8510   2.8954   2.9918   2.9956   3.2256   3.2274   3.3604
     3.3870   3.3884   3.6570   3.6599   3.7706   3.7909   3.7911   3.8411
     3.8737   3.9774   3.9791   4.2138   4.2164   4.3018   4.3038   4.4286
     4.4298   4.4464   4.4547   4.5897   4.9311   5.2492   5.2742   5.3564
     5.3623   5.4759   5.5380   5.5407   5.5989   5.6481   5.6544   5.6714
     5.6962   5.7081   5.7091   5.7527   5.9755   5.9869   6.0231   6.0376
     6.0475   6.0516   6.0595   6.0610   6.0639   6.1091   6.1310   6.1515

          k =-0.2500 0.2500 0.2500 (167588 PWs)   bands (ev):

   -19.2025  -7.0200  -6.9154  -6.3870  -6.3864  -5.9572  -5.5481  -5.4551
    -5.4546  -5.2589  -5.2589  -5.1413  -5.1404  -5.0625  -5.0394  -4.9665
    -4.8817  -4.8777  -4.8389  -4.8387  -4.6779  -4.6616  -4.6603  -4.6598
    -4.6528  -4.5973  -4.5973  -4.5856  -4.5851  -4.5484  -4.5359  -4.5352
    -4.4936  -4.4935  -4.4601  -4.4588  -4.4072  -4.4064  -4.3958  -4.3950
    -4.3894  -4.3763  -4.3763  -4.3352  -4.3171  -4.3169  -4.3099  -4.3096
    -4.2773  -4.2279  -4.2129  -4.2124  -4.2089  -4.2084  -4.2010  -4.1951
    -4.1949  -4.1948  -4.1299  -4.1290  -4.0799  -4.0795  -4.0672  -4.0412
    -4.0411  -4.0215  -4.0188  -4.0182  -4.0136  -4.0110  -3.9621  -3.9621
    -3.9492  -3.9487  -3.8439  -3.8432  -3.8377  -3.8370  -3.8000  -3.7914
    -3.7759  -3.7468  -3.7467  -3.7182  -3.7177  -3.6963  -3.6960  -3.6827
    -3.6820  -3.6277  -3.6274  -3.6096  -3.5928  -3.5820  -3.5806  -3.5804
    -3.5788  -3.5519  -3.5516  -3.5155  -3.5154  -3.4931  -3.4926  -3.4597
    -3.4593  -3.4413  -3.4140  -3.4138  -3.3766  -3.3762  -3.3411  -3.3335
    -3.3329  -3.3190  -3.3185  -3.3137  -3.3135  -3.2753  -3.2643  -3.2324
    -3.2240  -3.2235  -3.2161  -3.2063  -3.2059  -3.2043  -3.1801  -3.1800
    -3.1588  -3.1585  -3.1577  -3.1312  -3.1312  -3.1236  -3.1208  -3.1206
    -3.0844  -3.0807  -3.0452  -3.0447  -3.0440  -3.0412  -3.0410  -2.9620
    -2.9520  -2.9477  -2.9471  -2.9460  -2.9457  -2.9411  -2.9408  -2.9406
    -2.9403  -2.9309  -2.9230  -2.9060  -2.9033  -2.9025  -2.9022  -2.8876
    -2.8832  -2.8450  -2.8443  -2.8440  -2.8402  -2.8395  -2.8217  -2.8213
    -2.8125  -2.8125  -2.8103  -2.7506  -2.7505  -2.7453  -2.7452  -2.7401
    -2.7399  -2.7118  -2.6530  -2.6517  -2.6511  -2.6494  -2.6381  -2.6357
    -2.6311  -2.6201  -2.6199  -2.5833  -2.5824  -2.5743  -2.5734  -2.5731
    -2.5727  -2.5333  -2.5330  -2.5233  -2.5233  -2.5218  -2.5214  -2.4796
    -2.4637  -2.4581  -2.4049  -2.4045  -2.3862  -2.3843  -2.3792  -2.3791
    -2.3307  -2.3298  -2.3068  -2.2904  -2.2762  -2.2755  -2.2751  -2.2533
    -2.2531  -2.2434  -2.2269  -2.1866  -2.1858  -2.1717  -2.1711  -2.1708
    -2.1604  -2.1601  -2.1453  -2.1446  -2.1445  -2.1403  -2.1355  -2.1344
    -2.1341  -2.1227  -2.1222  -2.1046  -2.1044  -2.1024  -2.0961  -2.0935
    -2.0931  -2.0695  -2.0690  -2.0579  -2.0558  -2.0514  -2.0507  -2.0128
    -1.9792  -1.9784  -1.9433  -1.9261  -1.9257  -1.9153  -1.9146  -1.8916
    -1.8910  -1.8768  -1.8762  -1.8749  -1.8748  -1.8718  -1.8711  -1.8393
    -1.8391  -1.8388  -1.7930  -1.7925  -1.7529  -1.7525  -1.7054  -1.7051
    -1.6930  -1.6705  -1.6657  -1.6625  -1.6467  -1.6443  -1.6275  -1.6267
    -1.6225  -1.6215  -1.6204  -1.6199  -1.6193  -1.6171  -1.5969  -1.5968
    -1.5862  -1.5689  -1.5502  -1.5501  -1.5234  -1.5232  -1.5208  -1.5201
    -1.5173  -1.5143  -1.4927  -1.4922  -1.4780  -1.4768  -1.4644  -1.4542
    -1.4409  -1.4402  -1.4096  -1.4092  -1.4013  -1.4012  -1.3661  -1.3653
    -1.3576  -1.3570  -1.3486  -1.3482  -1.3269  -1.3265  -1.3147  -1.3082
    -1.3077  -1.2948  -1.2947  -1.2939  -1.2936  -1.2794  -1.2691  -1.2682
    -1.2610  -1.2608  -1.2493  -1.2445  -1.2441  -1.2373  -1.2095  -1.1977
    -1.1959  -1.1915  -1.1882  -1.1877  -1.1876  -1.1486  -1.1323  -1.1312
    -1.1311  -1.1309  -1.1265  -1.1261  -1.1215  -1.1090  -1.1059  -1.0699
    -1.0693  -1.0623  -1.0623  -1.0395  -1.0393  -1.0294  -0.9997  -0.9920
    -0.9649  -0.9643  -0.9367  -0.9364  -0.9341  -0.9332  -0.9314  -0.9276
    -0.9245  -0.9224  -0.9180  -0.9176  -0.8858  -0.8854  -0.8680  -0.8668
    -0.8622  -0.8616  -0.8603  -0.8600  -0.8414  -0.5657  -0.5547  -0.5005
    -0.4981  -0.4601  -0.2991  -0.2344  -0.2338  -0.2029   0.0848   0.0853
     0.4139   0.4165   0.5140   0.5142   0.5548   0.5561   0.6979   0.6995
     0.8226   0.8247   0.9106   1.5100   1.5280   1.5291   1.5673   1.5742
     1.6139   1.6209   1.6977   1.6991   1.9055   1.9062   2.1392   2.2193
     2.2224   2.2367   2.6137   2.6201   2.6918   2.6918   2.6982   2.6991
     2.8499   2.8510   2.8954   2.9918   2.9956   3.2256   3.2274   3.3604
     3.3870   3.3884   3.6570   3.6599   3.7706   3.7909   3.7911   3.8412
     3.8737   3.9774   3.9791   4.2138   4.2164   4.3018   4.3038   4.4286
     4.4298   4.4464   4.4547   4.5898   4.9277   5.2490   5.2719   5.3562
     5.3620   5.4660   5.5381   5.5407   5.6053   5.6452   5.6552   5.6667
     5.7081   5.7091   5.7352   5.7531   5.9815   5.9953   6.0235   6.0380
     6.0477   6.0517   6.0598   6.0610   6.0876   6.1227   6.1411   6.1588

     the Fermi energy is     0.7731 ev

!    total energy              =   -7425.29011868 Ry
     Harris-Foulkes estimate   =   -7425.29011867 Ry
     estimated scf accuracy    <          8.1E-09 Ry

     The total energy is the sum of the following terms:

     one-electron contribution =  -48401.86695639 Ry
     hartree contribution      =   24749.14998782 Ry
     xc contribution           =   -3604.19562422 Ry
     ewald contribution        =   19831.62540057 Ry
     smearing contrib. (-TS)   =      -0.00292646 Ry

     convergence has been achieved in  28 iterations

     Writing output data file 8852411.save

     init_run     :    100.51s CPU    108.72s WALL (       1 calls)
     electrons    :   6717.77s CPU   7114.40s WALL (       1 calls)

     Called by init_run:
     wfcinit      :     74.56s CPU     81.96s WALL (       1 calls)
     potinit      :      7.01s CPU      7.45s WALL (       1 calls)

     Called by electrons:
     c_bands      :   5663.93s CPU   5980.95s WALL (      29 calls)
     sum_band     :    731.82s CPU    796.03s WALL (      29 calls)
     v_of_rho     :     87.19s CPU     98.10s WALL (      29 calls)
     newd         :    243.48s CPU    247.60s WALL (      29 calls)
     mix_rho      :      2.44s CPU      2.81s WALL (      29 calls)
     vdW_energy   :     12.51s CPU     13.33s WALL (      29 calls)
     vdW_ffts     :     38.08s CPU     43.20s WALL (      58 calls)
     vdW_v        :      9.44s CPU     10.35s WALL (      29 calls)

     Called by c_bands:
     init_us_2    :     10.13s CPU     10.51s WALL (     354 calls)
     cegterg      :   5585.60s CPU   5896.44s WALL (     174 calls)

     Called by *egterg:
     h_psi        :   2196.22s CPU   2465.17s WALL (     873 calls)
     s_psi        :    387.95s CPU    390.28s WALL (     873 calls)
     g_psi        :      4.71s CPU      4.76s WALL (     693 calls)
     cdiaghg      :   1780.42s CPU   1786.01s WALL (     861 calls)

     Called by h_psi:
     add_vuspsi   :    390.16s CPU    392.42s WALL (     873 calls)

     General routines
     calbec       :    563.01s CPU    565.21s WALL (    1047 calls)
     fft          :     89.98s CPU     99.62s WALL (    1914 calls)
     ffts         :      0.94s CPU      1.15s WALL (      58 calls)
     fftw         :   1520.90s CPU   1808.76s WALL (  467534 calls)
     interpolate  :      2.88s CPU      3.49s WALL (      58 calls)
     davcio       :      0.00s CPU      0.11s WALL (       6 calls)

     Parallel routines
     fft_scatter  :   1014.32s CPU   1218.19s WALL (  469506 calls)

     PWSCF        :     1h53m CPU        2h 0m WALL


   This run was terminated on:   6:45:49   6Jul2015            

=------------------------------------------------------------------------------=
   JOB DONE.
=------------------------------------------------------------------------------=
