
     Program PWSCF v.5.1.2 starts on 24Aug2015 at 11:36:18 

     This program is part of the open-source Quantum ESPRESSO suite
     for quantum simulation of materials; please cite
         "P. Giannozzi et al., J. Phys.:Condens. Matter 21 395502 (2009);
          URL http://www.quantum-espresso.org", 
     in publications or presentations arising from this work. More details at
     http://www.quantum-espresso.org/quote

     Parallel version (MPI), running on    32 processors
     R & G space division:  proc/nbgrp/npool/nimage =      32
     Reading input from hollow.O1.Au5859.d.2.7.phi.0.psi.0.in
Warning: card &IONS ignored
Warning: card / ignored
Warning: card &CELL ignored
Warning: card / ignored

     Current dimensions of program PWSCF are:
     Max number of different atomic species (ntypx) = 10
     Max number of k-points (npk) =  40000
     Max angular momentum in pseudopotentials (lmaxx) =  3

     IMPORTANT: XC functional enforced from input :
     Exchange-correlation      = VDW-DF ( 1  4  4  0 1 0)
     Any further DFT definition will be discarded
     Please, verify this is what you really want


     Subspace diagonalization in iterative solution of the eigenvalue problem:
     a serial algorithm will be used


     Parallelization info
     --------------------
     sticks:   dense  smooth     PW     G-vecs:    dense   smooth      PW
     Min         578     289     74               118518    41891    5486
     Max         579     290     75               118533    41932    5497
     Sum       18505    9265   2385              3792731  1341081  175711


     Title: 
     hollow.O1.Au5859.d.2.7.phi.0.psi.0                                         


     bravais-lattice index     =            8
     lattice parameter (alat)  =      24.1233  a.u.
     unit-cell volume          =   28076.2361 (a.u.)^3
     number of atoms/cell      =           75
     number of atomic types    =            3
     number of electrons       =       800.00
     number of Kohn-Sham states=          480
     kinetic-energy cutoff     =      50.0000  Ry
     charge density cutoff     =     400.0000  Ry
     convergence threshold     =      1.0E-08
     mixing beta               =       0.7000
     number of iterations used =            8  plain     mixing
     Exchange-correlation      = VDW-DF ( 1  4  4  0 1 0)

     celldm(1)=  24.123277  celldm(2)=   1.000000  celldm(3)=   2.000000
     celldm(4)=   0.000000  celldm(5)=   0.000000  celldm(6)=   0.000000

     crystal axes: (cart. coord. in units of alat)
               a(1) = (   1.000000   0.000000   0.000000 )  
               a(2) = (   0.000000   1.000000   0.000000 )  
               a(3) = (   0.000000   0.000000   2.000000 )  

     reciprocal axes: (cart. coord. in units 2 pi/alat)
               b(1) = (  1.000000  0.000000  0.000000 )  
               b(2) = (  0.000000  1.000000  0.000000 )  
               b(3) = (  0.000000  0.000000  0.500000 )  


     PseudoPot. # 1 for Au read from file:
     /home/scc/andrejb/qe/pseudo/Au.pbe-nd-van.UPF
     MD5 check sum: 458681b50f36d87ef23c61b04bba420a
     Pseudo is Ultrasoft + core correction, Zval = 11.0
     Generated by new atomic code, or converted to UPF format
     Using radial grid of  985 points,  3 beta functions with: 
                l(1) =   1
                l(2) =   2
                l(3) =   2
     Q(r) pseudized with  8 coefficients,  rinner =    1.100   1.100   1.100
                                                       1.100   1.100

     PseudoPot. # 2 for H  read from file:
     /home/scc/andrejb/qe/pseudo/H.pbe-van_ak.UPF
     MD5 check sum: 403db7282739603aa925980fa9b8608d
     Pseudo is Ultrasoft, Zval =  1.0
     Generated by new atomic code, or converted to UPF format
     Using radial grid of  615 points,  1 beta functions with: 
                l(1) =   0
     Q(r) pseudized with  8 coefficients,  rinner =    0.800

     PseudoPot. # 3 for O  read from file:
     /home/scc/andrejb/qe/pseudo/O.pbe-van_ak.UPF
     MD5 check sum: 4b8c549914a63cae506c6ff22b5af4fe
     Pseudo is Ultrasoft, Zval =  6.0
     Generated by new atomic code, or converted to UPF format
     Using radial grid of  737 points,  4 beta functions with: 
                l(1) =   0
                l(2) =   0
                l(3) =   1
                l(4) =   1
     Q(r) pseudized with  8 coefficients,  rinner =    0.800   0.800   0.800


     vdW kernel table read from file vdW_kernel_table
     MD5 check sum: 48e77a2e26edf626eeb0eaa751ad5cac

     atomic species   valence    mass     pseudopotential
        Au            11.00   196.96657     Au( 1.00)
        H              1.00     1.01000     H ( 1.00)
        O              6.00    16.00000     O ( 1.00)

     No symmetry found



   Cartesian axes

     site n.     atom                  positions (alat units)
         1           O   tau(   1) = (   0.1666051   0.1666105   0.7108218  )
         2           H   tau(   2) = (   0.1195275   0.1274390   0.7563157  )
         3           H   tau(   3) = (   0.2122554   0.2046122   0.7586794  )
         4           Au  tau(   4) = (   0.0000000   0.0000000   0.0000000  )
         5           Au  tau(   5) = (   0.3332217   0.0000000   0.0000000  )
         6           Au  tau(   6) = (   0.6664434   0.0000000   0.0000000  )
         7           Au  tau(   7) = (   0.1666109   0.1666109   0.0000000  )
         8           Au  tau(   8) = (   0.4998326   0.1666109   0.0000000  )
         9           Au  tau(   9) = (   0.8330542   0.1666109   0.0000000  )
        10           Au  tau(  10) = (   0.0000000   0.3332217   0.0000000  )
        11           Au  tau(  11) = (   0.3332217   0.3332217   0.0000000  )
        12           Au  tau(  12) = (   0.6664434   0.3332217   0.0000000  )
        13           Au  tau(  13) = (   0.1666109   0.4998326   0.0000000  )
        14           Au  tau(  14) = (   0.4998326   0.4998326   0.0000000  )
        15           Au  tau(  15) = (   0.8330542   0.4998326   0.0000000  )
        16           Au  tau(  16) = (   0.0000000   0.6664434   0.0000000  )
        17           Au  tau(  17) = (   0.3332217   0.6664434   0.0000000  )
        18           Au  tau(  18) = (   0.6664434   0.6664434   0.0000000  )
        19           Au  tau(  19) = (   0.1666109   0.8330542   0.0000000  )
        20           Au  tau(  20) = (   0.4998326   0.8330542   0.0000000  )
        21           Au  tau(  21) = (   0.8330542   0.8330542   0.0000000  )
        22           Au  tau(  22) = (   0.1666109   0.0000000   0.1666109  )
        23           Au  tau(  23) = (   0.4998326   0.0000000   0.1666109  )
        24           Au  tau(  24) = (   0.8330542   0.0000000   0.1666109  )
        25           Au  tau(  25) = (   0.0000000   0.1666109   0.1666109  )
        26           Au  tau(  26) = (   0.3332217   0.1666109   0.1666109  )
        27           Au  tau(  27) = (   0.6664434   0.1666109   0.1666109  )
        28           Au  tau(  28) = (   0.1666109   0.3332217   0.1666109  )
        29           Au  tau(  29) = (   0.4998326   0.3332217   0.1666109  )
        30           Au  tau(  30) = (   0.8330542   0.3332217   0.1666109  )
        31           Au  tau(  31) = (   0.0000000   0.4998326   0.1666109  )
        32           Au  tau(  32) = (   0.3332217   0.4998326   0.1666109  )
        33           Au  tau(  33) = (   0.6664434   0.4998326   0.1666109  )
        34           Au  tau(  34) = (   0.1666109   0.6664434   0.1666109  )
        35           Au  tau(  35) = (   0.4998326   0.6664434   0.1666109  )
        36           Au  tau(  36) = (   0.8330542   0.6664434   0.1666109  )
        37           Au  tau(  37) = (   0.0000000   0.8330542   0.1666109  )
        38           Au  tau(  38) = (   0.3332217   0.8330542   0.1666109  )
        39           Au  tau(  39) = (   0.6664434   0.8330542   0.1666109  )
        40           Au  tau(  40) = (  -0.0000182  -0.0000182   0.3335478  )
        41           Au  tau(  41) = (   0.3332215  -0.0000181   0.3335473  )
        42           Au  tau(  42) = (   0.6664447  -0.0000183   0.3335481  )
        43           Au  tau(  43) = (  -0.0000181   0.3332215   0.3335473  )
        44           Au  tau(  44) = (   0.3332215   0.3332215   0.3335468  )
        45           Au  tau(  45) = (   0.6664445   0.3332215   0.3335477  )
        46           Au  tau(  46) = (  -0.0000183   0.6664447   0.3335481  )
        47           Au  tau(  47) = (   0.3332215   0.6664445   0.3335477  )
        48           Au  tau(  48) = (   0.6664446   0.6664446   0.3335486  )
        49           Au  tau(  49) = (   0.1666097   0.1666097   0.3335483  )
        50           Au  tau(  50) = (   0.4998320   0.1666098   0.3335477  )
        51           Au  tau(  51) = (   0.8330732   0.1666096   0.3335480  )
        52           Au  tau(  52) = (   0.1666098   0.4998320   0.3335477  )
        53           Au  tau(  53) = (   0.4998322   0.4998322   0.3335470  )
        54           Au  tau(  54) = (   0.8330731   0.4998322   0.3335474  )
        55           Au  tau(  55) = (   0.1666096   0.8330732   0.3335480  )
        56           Au  tau(  56) = (   0.4998322   0.8330731   0.3335474  )
        57           Au  tau(  57) = (   0.8330731   0.8330731   0.3335478  )
        58           Au  tau(  58) = (   0.1666104  -0.0000111   0.4993095  )
        59           Au  tau(  59) = (   0.4998323  -0.0000112   0.4993099  )
        60           Au  tau(  60) = (   0.8330660  -0.0000111   0.4993009  )
        61           Au  tau(  61) = (  -0.0000111   0.1666104   0.4993095  )
        62           Au  tau(  62) = (   0.3332213   0.1666106   0.4993185  )
        63           Au  tau(  63) = (   0.6664437   0.1666106   0.4993187  )
        64           Au  tau(  64) = (   0.1666106   0.3332213   0.4993185  )
        65           Au  tau(  65) = (   0.4998324   0.3332216   0.4993185  )
        66           Au  tau(  66) = (   0.8330658   0.3332215   0.4993102  )
        67           Au  tau(  67) = (  -0.0000112   0.4998323   0.4993099  )
        68           Au  tau(  68) = (   0.3332216   0.4998324   0.4993185  )
        69           Au  tau(  69) = (   0.6664437   0.4998325   0.4993187  )
        70           Au  tau(  70) = (   0.1666106   0.6664437   0.4993187  )
        71           Au  tau(  71) = (   0.4998325   0.6664437   0.4993187  )
        72           Au  tau(  72) = (   0.8330658   0.6664438   0.4993102  )
        73           Au  tau(  73) = (  -0.0000111   0.8330660   0.4993009  )
        74           Au  tau(  74) = (   0.3332215   0.8330658   0.4993102  )
        75           Au  tau(  75) = (   0.6664438   0.8330658   0.4993102  )

     number of k points=     6  Marzari-Vanderbilt smearing, width (Ry)=  0.0200
                       cart. coord. in units 2pi/alat
        k(    1) = (   0.2500000   0.2500000   0.0833333), wk =   0.3333333
        k(    2) = (   0.2500000   0.2500000  -0.2500000), wk =   0.3333333
        k(    3) = (  -0.2500000  -0.2500000   0.0833333), wk =   0.3333333
        k(    4) = (  -0.2500000   0.2500000  -0.0833333), wk =   0.3333333
        k(    5) = (   0.2500000  -0.2500000  -0.0833333), wk =   0.3333333
        k(    6) = (  -0.2500000   0.2500000   0.2500000), wk =   0.3333333

     Dense  grid:  3792731 G-vectors     FFT dimensions: ( 160, 160, 320)

     Smooth grid:  1341081 G-vectors     FFT dimensions: ( 120, 120, 225)

     Largest allocated arrays     est. size (Mb)     dimensions
        Kohn-Sham Wavefunctions        38.58 Mb     (    5267,  480)
        NL pseudopotentials            76.03 Mb     (    5267,  946)
        Each V/rho on FFT grid          3.91 Mb     (  256000)
        Each G-vector array             0.90 Mb     (  118520)
        G-vector shells                 0.08 Mb     (   10286)
     Largest temporary arrays     est. size (Mb)     dimensions
        Auxiliary wavefunctions       154.31 Mb     (    5267, 1920)
        Each subspace H/S matrix       56.25 Mb     (    1920, 1920)
        Each <psi_i|beta_j> matrix      6.93 Mb     (     946,  480)
        Arrays for rho mixing          31.25 Mb     (  256000,    8)

     Initial potential from superposition of free atoms
     Check: negative starting charge=   -1.945094

     starting charge  799.16392, renormalised to  800.00000

     negative rho (up, down):  1.947E+00 0.000E+00


     ************************************************************************
     *
     * You are using vdW-DF for exchange-correlation in this calculation.
     * Please cite the following three references that made this development
     * possible:
     *
     *   M. Dion, H. Rydberg, E. Schroder, D. C. Langreth, and
     *   B. I. Lundqvist, Phys. Rev. Lett. 92, 246401 (2004).
     *
     *   T. Thonhauser, V. R. Cooper, S. Li, A. Puzder, P. Hyldgaard, and
     *   D. C. Langreth, Phys. Rev. B 76, 125112 (2007).
     *
     *   G. Roman-Perez and J. M. Soler, Phys. Rev. Lett. 103, 096102 (2009).
     *
     *
     * If you are using vdW-DF2, please also cite:
     *
     *   K. Lee, E. D. Murray, L. Kong, B. I. Lundqvist, and
     *   D. C. Langreth, Phys. Rev. B 82, 081101(R) (2010).
     *
     *
     * If you are calculating the stress with vdW-DF, please also cite:
     *
     *   R. Sabatini, E. Kucukbenli, B. Kolb, T. Thonhauser, and
     *   S. de Gironcoli, J. Phys.: Condens. Matter 24, 424209 (2012).
     *
     ************************************************************************

     Carrying out vdW-DF run using the following parameters:

     Nqs =      20    Nr_points =    1024   r_max =   100.000
     q_mesh =
               0.00001000     0.04494208     0.09755937     0.15916263
               0.23128650     0.31572767     0.41458969     0.53033537
               0.66584808     0.82450364     1.01025438     1.22772762
               1.48234092     1.78043706     2.12944203     2.53805004
               3.01644009     3.57652955     4.23227104     5.00000000

     Gradients computed in reciprocal space

     ************************************************************************


     Starting wfc are  654 randomized atomic wfcs

     total cpu time spent up to now is      139.3 secs

     Self-consistent Calculation

     iteration #  1     ecut=    50.00 Ry     beta=0.70
     Davidson diagonalization with overlap
     ethr =  1.00E-02,  avg # of iterations =  3.0

     Threshold (ethr) on eigenvalues was too large:
     Diagonalizing with lowered threshold

     Davidson diagonalization with overlap
     ethr =  4.30E-04,  avg # of iterations =  2.5

     negative rho (up, down):  1.947E+00 0.000E+00

     total cpu time spent up to now is      627.5 secs

     total energy              =   -7422.99532342 Ry
     Harris-Foulkes estimate   =   -7426.09228028 Ry
     estimated scf accuracy    <       3.82133939 Ry

     iteration #  2     ecut=    50.00 Ry     beta=0.70
     Davidson diagonalization with overlap
     ethr =  4.78E-04,  avg # of iterations = 11.3

     negative rho (up, down):  1.941E+00 0.000E+00

     total cpu time spent up to now is     1421.4 secs

     total energy              =   -7414.50225987 Ry
     Harris-Foulkes estimate   =   -7432.82171325 Ry
     estimated scf accuracy    <      97.13328597 Ry

     iteration #  3     ecut=    50.00 Ry     beta=0.70
     Davidson diagonalization with overlap
     ethr =  4.78E-04,  avg # of iterations =  6.0

     negative rho (up, down):  1.951E+00 0.000E+00

     total cpu time spent up to now is     1934.4 secs

     total energy              =   -7424.25460239 Ry
     Harris-Foulkes estimate   =   -7425.86742839 Ry
     estimated scf accuracy    <       6.48004189 Ry

     iteration #  4     ecut=    50.00 Ry     beta=0.70
     Davidson diagonalization with overlap
     ethr =  4.78E-04,  avg # of iterations =  6.0

     negative rho (up, down):  1.955E+00 0.000E+00

     total cpu time spent up to now is     2233.6 secs

     total energy              =   -7424.77833283 Ry
     Harris-Foulkes estimate   =   -7425.72392059 Ry
     estimated scf accuracy    <       6.26375175 Ry

     iteration #  5     ecut=    50.00 Ry     beta=0.70
     Davidson diagonalization with overlap
     ethr =  4.78E-04,  avg # of iterations =  6.5

     negative rho (up, down):  1.963E+00 0.000E+00

     total cpu time spent up to now is     2539.7 secs

     total energy              =   -7425.17483274 Ry
     Harris-Foulkes estimate   =   -7425.48119292 Ry
     estimated scf accuracy    <       2.04826366 Ry

     iteration #  6     ecut=    50.00 Ry     beta=0.70
     Davidson diagonalization with overlap
     ethr =  2.56E-04,  avg # of iterations =  3.8

     negative rho (up, down):  1.966E+00 0.000E+00

     total cpu time spent up to now is     2805.0 secs

     total energy              =   -7425.27930777 Ry
     Harris-Foulkes estimate   =   -7425.32609788 Ry
     estimated scf accuracy    <       0.15506208 Ry

     iteration #  7     ecut=    50.00 Ry     beta=0.70
     Davidson diagonalization with overlap
     ethr =  1.94E-05,  avg # of iterations = 11.0

     negative rho (up, down):  1.969E+00 0.000E+00

     total cpu time spent up to now is     3193.3 secs

     total energy              =   -7425.28236380 Ry
     Harris-Foulkes estimate   =   -7425.31698040 Ry
     estimated scf accuracy    <       0.15668622 Ry

     iteration #  8     ecut=    50.00 Ry     beta=0.70
     Davidson diagonalization with overlap
     ethr =  1.94E-05,  avg # of iterations =  3.0

     negative rho (up, down):  1.971E+00 0.000E+00

     total cpu time spent up to now is     3447.6 secs

     total energy              =   -7425.28525372 Ry
     Harris-Foulkes estimate   =   -7425.30653734 Ry
     estimated scf accuracy    <       0.09062441 Ry

     iteration #  9     ecut=    50.00 Ry     beta=0.70
     Davidson diagonalization with overlap
     ethr =  1.13E-05,  avg # of iterations = 10.5

     negative rho (up, down):  1.972E+00 0.000E+00

     total cpu time spent up to now is     3806.9 secs

     total energy              =   -7425.29003891 Ry
     Harris-Foulkes estimate   =   -7425.29896097 Ry
     estimated scf accuracy    <       0.03082002 Ry

     iteration # 10     ecut=    50.00 Ry     beta=0.70
     Davidson diagonalization with overlap
     ethr =  3.85E-06,  avg # of iterations =  6.5

     negative rho (up, down):  1.972E+00 0.000E+00

     total cpu time spent up to now is     4119.4 secs

     total energy              =   -7425.29272821 Ry
     Harris-Foulkes estimate   =   -7425.29509478 Ry
     estimated scf accuracy    <       0.00638366 Ry

     iteration # 11     ecut=    50.00 Ry     beta=0.70
     Davidson diagonalization with overlap
     ethr =  7.98E-07,  avg # of iterations = 10.2

     negative rho (up, down):  1.973E+00 0.000E+00

     total cpu time spent up to now is     4485.7 secs

     total energy              =   -7425.29356468 Ry
     Harris-Foulkes estimate   =   -7425.29426012 Ry
     estimated scf accuracy    <       0.00212337 Ry

     iteration # 12     ecut=    50.00 Ry     beta=0.70
     Davidson diagonalization with overlap
     ethr =  2.65E-07,  avg # of iterations =  2.0

     negative rho (up, down):  1.974E+00 0.000E+00

     total cpu time spent up to now is     4734.8 secs

     total energy              =   -7425.29361789 Ry
     Harris-Foulkes estimate   =   -7425.29398133 Ry
     estimated scf accuracy    <       0.00068821 Ry

     iteration # 13     ecut=    50.00 Ry     beta=0.70
     Davidson diagonalization with overlap
     ethr =  8.60E-08,  avg # of iterations =  7.8

     negative rho (up, down):  1.974E+00 0.000E+00

     total cpu time spent up to now is     5220.5 secs

     total energy              =   -7425.29326929 Ry
     Harris-Foulkes estimate   =   -7425.29443219 Ry
     estimated scf accuracy    <       0.00558148 Ry

     iteration # 14     ecut=    50.00 Ry     beta=0.70
     Davidson diagonalization with overlap
     ethr =  8.60E-08,  avg # of iterations =  3.0

     negative rho (up, down):  1.974E+00 0.000E+00

     total cpu time spent up to now is     5549.0 secs

     total energy              =   -7425.29378242 Ry
     Harris-Foulkes estimate   =   -7425.29388854 Ry
     estimated scf accuracy    <       0.00047108 Ry

     iteration # 15     ecut=    50.00 Ry     beta=0.70
     Davidson diagonalization with overlap
     ethr =  5.89E-08,  avg # of iterations =  2.0

     negative rho (up, down):  1.974E+00 0.000E+00

     total cpu time spent up to now is     5790.9 secs

     total energy              =   -7425.29382313 Ry
     Harris-Foulkes estimate   =   -7425.29385569 Ry
     estimated scf accuracy    <       0.00012051 Ry

     iteration # 16     ecut=    50.00 Ry     beta=0.70
     Davidson diagonalization with overlap
     ethr =  1.51E-08,  avg # of iterations =  2.0

     negative rho (up, down):  1.974E+00 0.000E+00

     total cpu time spent up to now is     6043.1 secs

     total energy              =   -7425.29379860 Ry
     Harris-Foulkes estimate   =   -7425.29389621 Ry
     estimated scf accuracy    <       0.00085734 Ry

     iteration # 17     ecut=    50.00 Ry     beta=0.70
     Davidson diagonalization with overlap
     ethr =  1.51E-08,  avg # of iterations =  2.0

     negative rho (up, down):  1.974E+00 0.000E+00

     total cpu time spent up to now is     6287.6 secs

     total energy              =   -7425.29384532 Ry
     Harris-Foulkes estimate   =   -7425.29384672 Ry
     estimated scf accuracy    <       0.00000313 Ry

     iteration # 18     ecut=    50.00 Ry     beta=0.70
     Davidson diagonalization with overlap
     ethr =  3.92E-10,  avg # of iterations =  3.0

     negative rho (up, down):  1.974E+00 0.000E+00

     total cpu time spent up to now is     6629.9 secs

     total energy              =   -7425.29384589 Ry
     Harris-Foulkes estimate   =   -7425.29384685 Ry
     estimated scf accuracy    <       0.00000285 Ry

     iteration # 19     ecut=    50.00 Ry     beta=0.70
     Davidson diagonalization with overlap
     ethr =  3.56E-10,  avg # of iterations =  2.0

     negative rho (up, down):  1.974E+00 0.000E+00

     total cpu time spent up to now is     6871.9 secs

     total energy              =   -7425.29384614 Ry
     Harris-Foulkes estimate   =   -7425.29384649 Ry
     estimated scf accuracy    <       0.00000138 Ry

     iteration # 20     ecut=    50.00 Ry     beta=0.70
     Davidson diagonalization with overlap
     ethr =  1.73E-10,  avg # of iterations =  3.0

     negative rho (up, down):  1.974E+00 0.000E+00

     total cpu time spent up to now is     7137.9 secs

     total energy              =   -7425.29384628 Ry
     Harris-Foulkes estimate   =   -7425.29384642 Ry
     estimated scf accuracy    <       0.00000070 Ry

     iteration # 21     ecut=    50.00 Ry     beta=0.70
     Davidson diagonalization with overlap
     ethr =  8.76E-11,  avg # of iterations =  2.0

     negative rho (up, down):  1.974E+00 0.000E+00

     total cpu time spent up to now is     7385.6 secs

     total energy              =   -7425.29384633 Ry
     Harris-Foulkes estimate   =   -7425.29384640 Ry
     estimated scf accuracy    <       0.00000020 Ry

     iteration # 22     ecut=    50.00 Ry     beta=0.70
     Davidson diagonalization with overlap
     ethr =  2.55E-11,  avg # of iterations =  2.0

     negative rho (up, down):  1.974E+00 0.000E+00

     total cpu time spent up to now is     7632.9 secs

     total energy              =   -7425.29384636 Ry
     Harris-Foulkes estimate   =   -7425.29384637 Ry
     estimated scf accuracy    <       0.00000004 Ry

     iteration # 23     ecut=    50.00 Ry     beta=0.70
     Davidson diagonalization with overlap
     ethr =  4.68E-12,  avg # of iterations =  3.0

     negative rho (up, down):  1.974E+00 0.000E+00

     total cpu time spent up to now is     7886.3 secs

     End of self-consistent calculation

          k = 0.2500 0.2500 0.0833 (167653 PWs)   bands (ev):

   -19.8587  -7.6658  -6.7167  -6.1882  -6.1878  -5.7583  -5.3519  -5.2562
    -5.2559  -5.0600  -5.0596  -4.9466  -4.9430  -4.8634  -4.8419  -4.7674
    -4.6827  -4.6788  -4.6406  -4.6400  -4.4819  -4.4620  -4.4613  -4.4608
    -4.4545  -4.3991  -4.3982  -4.3866  -4.3860  -4.3495  -4.3427  -4.3373
    -4.2954  -4.2944  -4.2610  -4.2602  -4.2292  -4.2083  -4.2035  -4.1956
    -4.1905  -4.1773  -4.1772  -4.1462  -4.1179  -4.1177  -4.1136  -4.1105
    -4.0956  -4.0526  -4.0285  -4.0139  -4.0129  -4.0106  -4.0019  -3.9987
    -3.9963  -3.9957  -3.9883  -3.9316  -3.9071  -3.8812  -3.8804  -3.8657
    -3.8424  -3.8373  -3.8231  -3.8194  -3.8193  -3.8132  -3.8113  -3.7630
    -3.7629  -3.7502  -3.7477  -3.6453  -3.6421  -3.6390  -3.6338  -3.6008
    -3.5877  -3.5784  -3.5481  -3.5479  -3.5193  -3.5181  -3.4977  -3.4974
    -3.4840  -3.4818  -3.4286  -3.4277  -3.4083  -3.3951  -3.3830  -3.3816
    -3.3812  -3.3806  -3.3535  -3.3534  -3.3167  -3.3159  -3.2945  -3.2916
    -3.2615  -3.2581  -3.2429  -3.2151  -3.2140  -3.1778  -3.1775  -3.1416
    -3.1345  -3.1335  -3.1203  -3.1174  -3.1147  -3.1140  -3.0747  -3.0665
    -3.0256  -3.0254  -3.0170  -3.0076  -3.0070  -3.0062  -2.9814  -2.9812
    -2.9601  -2.9601  -2.9591  -2.9327  -2.9324  -2.9248  -2.9222  -2.9202
    -2.8858  -2.8817  -2.8466  -2.8461  -2.8456  -2.8424  -2.8413  -2.7627
    -2.7529  -2.7492  -2.7481  -2.7472  -2.7471  -2.7423  -2.7419  -2.7416
    -2.7414  -2.7317  -2.7239  -2.7076  -2.7047  -2.7042  -2.7014  -2.6893
    -2.6836  -2.6463  -2.6455  -2.6454  -2.6419  -2.6399  -2.6228  -2.6222
    -2.6138  -2.6122  -2.6111  -2.5523  -2.5514  -2.5464  -2.5459  -2.5425
    -2.5392  -2.5123  -2.4543  -2.4532  -2.4532  -2.4505  -2.4391  -2.4366
    -2.4348  -2.4214  -2.4211  -2.3859  -2.3837  -2.3762  -2.3757  -2.3752
    -2.3726  -2.3354  -2.3351  -2.3260  -2.3248  -2.3239  -2.3232  -2.2802
    -2.2658  -2.2577  -2.2062  -2.2056  -2.1935  -2.1864  -2.1819  -2.1784
    -2.1344  -2.1293  -2.1082  -2.0908  -2.0795  -2.0777  -2.0762  -2.0565
    -2.0539  -2.0453  -2.0290  -2.0070  -1.9876  -1.9836  -1.9739  -1.9721
    -1.9643  -1.9608  -1.9594  -1.9465  -1.9458  -1.9418  -1.9388  -1.9373
    -1.9356  -1.9322  -1.9238  -1.9235  -1.9057  -1.9050  -1.8971  -1.8947
    -1.8939  -1.8860  -1.8706  -1.8704  -1.8575  -1.8567  -1.8505  -1.8391
    -1.8140  -1.7803  -1.7777  -1.7445  -1.7275  -1.7270  -1.7164  -1.7146
    -1.6924  -1.6910  -1.6788  -1.6775  -1.6762  -1.6759  -1.6726  -1.6663
    -1.6402  -1.6402  -1.6398  -1.5948  -1.5913  -1.5543  -1.5532  -1.5070
    -1.5056  -1.4941  -1.4717  -1.4671  -1.4644  -1.4463  -1.4455  -1.4289
    -1.4283  -1.4244  -1.4236  -1.4230  -1.4216  -1.4174  -1.4115  -1.3983
    -1.3978  -1.3863  -1.3705  -1.3518  -1.3514  -1.3257  -1.3255  -1.3228
    -1.3197  -1.3182  -1.3140  -1.2949  -1.2921  -1.2787  -1.2752  -1.2623
    -1.2558  -1.2424  -1.2423  -1.2115  -1.2105  -1.2026  -1.2004  -1.1663
    -1.1653  -1.1590  -1.1563  -1.1505  -1.1500  -1.1284  -1.1282  -1.1164
    -1.1097  -1.1094  -1.0971  -1.0967  -1.0949  -1.0928  -1.0813  -1.0697
    -1.0690  -1.0621  -1.0618  -1.0510  -1.0449  -1.0434  -1.0390  -0.9995
    -0.9961  -0.9933  -0.9904  -0.9903  -0.9870  -0.9502  -0.9337  -0.9330
    -0.9319  -0.9317  -0.9268  -0.9235  -0.9226  -0.9078  -0.9059  -0.8715
    -0.8709  -0.8637  -0.8634  -0.8409  -0.8405  -0.8308  -0.8014  -0.7936
    -0.7664  -0.7661  -0.7381  -0.7377  -0.7344  -0.7339  -0.7334  -0.7287
    -0.7242  -0.7237  -0.7193  -0.7183  -0.6872  -0.6867  -0.6699  -0.6676
    -0.6637  -0.6636  -0.6578  -0.6558  -0.6428  -0.3661  -0.3577  -0.3014
    -0.2935  -0.2611  -0.0990  -0.0357  -0.0344  -0.0012   0.2845   0.2852
     0.6114   0.6181   0.7130   0.7131   0.7528   0.7566   0.9004   0.9008
     1.0216   1.0236   1.1106   1.7079   1.7270   1.7278   1.7673   1.7713
     1.8107   1.8233   1.8972   1.8991   2.1039   2.1047   2.3360   2.4152
     2.4232   2.4369   2.8093   2.8194   2.8892   2.8909   2.8970   2.8987
     3.0488   3.0491   3.0745   3.1888   3.1962   3.4208   3.4330   3.5583
     3.5839   3.5860   3.8561   3.8575   3.9664   3.9813   3.9892   3.9906
     4.0445   4.1751   4.1791   4.4124   4.4128   4.4829   4.5005   4.6184
     4.6291   4.6413   4.6442   4.6671   4.8429   5.3972   5.4099   5.4407
     5.5501   5.5597   5.6093   5.6877   5.7365   5.7368   5.7433   5.8472
     5.8491   5.9065   5.9077   5.9454   5.9919   6.0454   6.0791   6.1644
     6.1790   6.2101   6.2183   6.2265   6.2448   6.2537   6.2556   6.2642

          k = 0.2500 0.2500-0.2500 (167588 PWs)   bands (ev):

   -19.8587  -7.6658  -6.7167  -6.1882  -6.1878  -5.7583  -5.3519  -5.2562
    -5.2559  -5.0600  -5.0596  -4.9466  -4.9430  -4.8634  -4.8419  -4.7674
    -4.6827  -4.6788  -4.6406  -4.6400  -4.4819  -4.4620  -4.4613  -4.4608
    -4.4545  -4.3991  -4.3982  -4.3866  -4.3860  -4.3496  -4.3427  -4.3373
    -4.2954  -4.2944  -4.2610  -4.2602  -4.2292  -4.2083  -4.2035  -4.1956
    -4.1905  -4.1773  -4.1772  -4.1462  -4.1179  -4.1177  -4.1136  -4.1105
    -4.0956  -4.0526  -4.0285  -4.0139  -4.0129  -4.0106  -4.0019  -3.9987
    -3.9963  -3.9957  -3.9883  -3.9316  -3.9071  -3.8812  -3.8804  -3.8657
    -3.8424  -3.8372  -3.8231  -3.8194  -3.8193  -3.8132  -3.8113  -3.7630
    -3.7629  -3.7502  -3.7477  -3.6453  -3.6421  -3.6390  -3.6338  -3.6008
    -3.5877  -3.5784  -3.5481  -3.5479  -3.5193  -3.5181  -3.4977  -3.4974
    -3.4840  -3.4818  -3.4286  -3.4277  -3.4083  -3.3951  -3.3830  -3.3816
    -3.3812  -3.3806  -3.3535  -3.3534  -3.3166  -3.3159  -3.2945  -3.2916
    -3.2615  -3.2581  -3.2429  -3.2151  -3.2140  -3.1778  -3.1775  -3.1416
    -3.1345  -3.1335  -3.1203  -3.1174  -3.1146  -3.1140  -3.0747  -3.0665
    -3.0255  -3.0254  -3.0170  -3.0076  -3.0070  -3.0062  -2.9814  -2.9812
    -2.9601  -2.9601  -2.9591  -2.9327  -2.9324  -2.9248  -2.9222  -2.9202
    -2.8858  -2.8817  -2.8466  -2.8461  -2.8456  -2.8424  -2.8413  -2.7627
    -2.7529  -2.7492  -2.7481  -2.7472  -2.7471  -2.7423  -2.7419  -2.7416
    -2.7414  -2.7317  -2.7239  -2.7076  -2.7047  -2.7042  -2.7014  -2.6893
    -2.6835  -2.6463  -2.6455  -2.6454  -2.6419  -2.6399  -2.6228  -2.6222
    -2.6138  -2.6122  -2.6111  -2.5523  -2.5514  -2.5464  -2.5459  -2.5424
    -2.5392  -2.5123  -2.4543  -2.4532  -2.4532  -2.4505  -2.4391  -2.4366
    -2.4348  -2.4214  -2.4211  -2.3859  -2.3837  -2.3762  -2.3757  -2.3752
    -2.3726  -2.3354  -2.3351  -2.3260  -2.3248  -2.3239  -2.3232  -2.2802
    -2.2658  -2.2577  -2.2062  -2.2056  -2.1935  -2.1864  -2.1819  -2.1784
    -2.1344  -2.1293  -2.1082  -2.0908  -2.0795  -2.0777  -2.0762  -2.0565
    -2.0539  -2.0453  -2.0290  -2.0070  -1.9876  -1.9836  -1.9739  -1.9721
    -1.9643  -1.9607  -1.9593  -1.9465  -1.9458  -1.9419  -1.9388  -1.9373
    -1.9356  -1.9322  -1.9238  -1.9235  -1.9057  -1.9050  -1.8971  -1.8947
    -1.8939  -1.8860  -1.8706  -1.8704  -1.8575  -1.8567  -1.8505  -1.8391
    -1.8140  -1.7803  -1.7777  -1.7445  -1.7275  -1.7270  -1.7164  -1.7146
    -1.6924  -1.6910  -1.6788  -1.6775  -1.6762  -1.6759  -1.6726  -1.6663
    -1.6402  -1.6402  -1.6398  -1.5948  -1.5913  -1.5543  -1.5532  -1.5070
    -1.5056  -1.4941  -1.4717  -1.4671  -1.4644  -1.4463  -1.4455  -1.4289
    -1.4283  -1.4244  -1.4236  -1.4230  -1.4216  -1.4174  -1.4115  -1.3983
    -1.3978  -1.3863  -1.3705  -1.3518  -1.3514  -1.3257  -1.3255  -1.3228
    -1.3197  -1.3182  -1.3140  -1.2949  -1.2921  -1.2787  -1.2752  -1.2623
    -1.2558  -1.2424  -1.2422  -1.2115  -1.2105  -1.2026  -1.2004  -1.1662
    -1.1653  -1.1590  -1.1563  -1.1505  -1.1500  -1.1284  -1.1282  -1.1164
    -1.1097  -1.1094  -1.0971  -1.0966  -1.0949  -1.0928  -1.0813  -1.0697
    -1.0690  -1.0621  -1.0618  -1.0510  -1.0449  -1.0433  -1.0390  -0.9995
    -0.9961  -0.9933  -0.9904  -0.9903  -0.9870  -0.9502  -0.9337  -0.9329
    -0.9319  -0.9317  -0.9268  -0.9235  -0.9226  -0.9078  -0.9059  -0.8715
    -0.8709  -0.8637  -0.8634  -0.8409  -0.8405  -0.8308  -0.8014  -0.7936
    -0.7664  -0.7661  -0.7381  -0.7377  -0.7344  -0.7339  -0.7334  -0.7287
    -0.7242  -0.7237  -0.7193  -0.7183  -0.6872  -0.6867  -0.6699  -0.6676
    -0.6637  -0.6636  -0.6578  -0.6558  -0.6428  -0.3661  -0.3577  -0.3014
    -0.2935  -0.2611  -0.0990  -0.0357  -0.0344  -0.0012   0.2845   0.2852
     0.6114   0.6181   0.7130   0.7131   0.7528   0.7566   0.9004   0.9008
     1.0216   1.0236   1.1106   1.7079   1.7270   1.7278   1.7673   1.7713
     1.8107   1.8233   1.8972   1.8991   2.1039   2.1047   2.3360   2.4152
     2.4232   2.4369   2.8093   2.8194   2.8892   2.8909   2.8970   2.8987
     3.0488   3.0491   3.0746   3.1888   3.1962   3.4208   3.4330   3.5583
     3.5839   3.5860   3.8561   3.8575   3.9664   3.9814   3.9892   3.9906
     4.0446   4.1751   4.1791   4.4124   4.4128   4.4828   4.5005   4.6182
     4.6291   4.6412   4.6440   4.6666   4.8415   5.3960   5.4091   5.4141
     5.5499   5.5598   5.6631   5.6935   5.7361   5.7386   5.7472   5.8471
     5.8487   5.9069   5.9076   5.9488   5.9806   6.0617   6.1061   6.1507
     6.1921   6.2165   6.2256   6.2357   6.2440   6.2561   6.2570   6.2571

          k =-0.2500-0.2500 0.0833 (167653 PWs)   bands (ev):

   -19.8587  -7.6658  -6.7167  -6.1882  -6.1878  -5.7583  -5.3519  -5.2562
    -5.2559  -5.0600  -5.0596  -4.9466  -4.9430  -4.8634  -4.8419  -4.7674
    -4.6827  -4.6788  -4.6406  -4.6400  -4.4819  -4.4620  -4.4613  -4.4608
    -4.4545  -4.3991  -4.3982  -4.3866  -4.3860  -4.3495  -4.3427  -4.3373
    -4.2954  -4.2944  -4.2610  -4.2602  -4.2292  -4.2083  -4.2035  -4.1956
    -4.1905  -4.1773  -4.1772  -4.1462  -4.1179  -4.1177  -4.1136  -4.1105
    -4.0956  -4.0526  -4.0285  -4.0139  -4.0129  -4.0106  -4.0019  -3.9987
    -3.9963  -3.9957  -3.9883  -3.9316  -3.9071  -3.8812  -3.8804  -3.8657
    -3.8424  -3.8373  -3.8231  -3.8194  -3.8193  -3.8132  -3.8113  -3.7630
    -3.7629  -3.7502  -3.7477  -3.6453  -3.6421  -3.6390  -3.6338  -3.6008
    -3.5877  -3.5784  -3.5481  -3.5479  -3.5193  -3.5181  -3.4977  -3.4974
    -3.4840  -3.4818  -3.4286  -3.4277  -3.4083  -3.3951  -3.3830  -3.3816
    -3.3812  -3.3806  -3.3535  -3.3534  -3.3167  -3.3159  -3.2945  -3.2916
    -3.2615  -3.2581  -3.2429  -3.2151  -3.2140  -3.1778  -3.1775  -3.1416
    -3.1345  -3.1335  -3.1203  -3.1174  -3.1147  -3.1140  -3.0747  -3.0665
    -3.0256  -3.0254  -3.0170  -3.0076  -3.0070  -3.0062  -2.9814  -2.9812
    -2.9601  -2.9601  -2.9591  -2.9327  -2.9324  -2.9248  -2.9222  -2.9202
    -2.8858  -2.8817  -2.8466  -2.8461  -2.8456  -2.8424  -2.8413  -2.7627
    -2.7529  -2.7492  -2.7481  -2.7472  -2.7471  -2.7423  -2.7419  -2.7416
    -2.7414  -2.7317  -2.7239  -2.7076  -2.7047  -2.7042  -2.7014  -2.6893
    -2.6836  -2.6463  -2.6455  -2.6454  -2.6419  -2.6399  -2.6228  -2.6222
    -2.6138  -2.6122  -2.6111  -2.5523  -2.5514  -2.5464  -2.5459  -2.5425
    -2.5392  -2.5123  -2.4543  -2.4532  -2.4532  -2.4505  -2.4391  -2.4366
    -2.4348  -2.4214  -2.4211  -2.3859  -2.3837  -2.3762  -2.3757  -2.3752
    -2.3726  -2.3354  -2.3351  -2.3260  -2.3248  -2.3239  -2.3232  -2.2802
    -2.2658  -2.2577  -2.2062  -2.2056  -2.1935  -2.1864  -2.1819  -2.1784
    -2.1344  -2.1293  -2.1082  -2.0908  -2.0795  -2.0777  -2.0762  -2.0565
    -2.0539  -2.0453  -2.0290  -2.0070  -1.9876  -1.9836  -1.9739  -1.9721
    -1.9643  -1.9608  -1.9594  -1.9465  -1.9458  -1.9418  -1.9388  -1.9373
    -1.9356  -1.9322  -1.9238  -1.9235  -1.9057  -1.9050  -1.8971  -1.8947
    -1.8939  -1.8860  -1.8706  -1.8704  -1.8575  -1.8567  -1.8505  -1.8391
    -1.8140  -1.7803  -1.7777  -1.7445  -1.7275  -1.7270  -1.7164  -1.7146
    -1.6924  -1.6910  -1.6788  -1.6775  -1.6762  -1.6759  -1.6726  -1.6663
    -1.6402  -1.6402  -1.6398  -1.5948  -1.5913  -1.5543  -1.5532  -1.5070
    -1.5056  -1.4941  -1.4717  -1.4671  -1.4644  -1.4463  -1.4455  -1.4289
    -1.4283  -1.4244  -1.4236  -1.4230  -1.4216  -1.4174  -1.4115  -1.3983
    -1.3978  -1.3863  -1.3705  -1.3518  -1.3514  -1.3257  -1.3255  -1.3228
    -1.3197  -1.3182  -1.3140  -1.2949  -1.2921  -1.2787  -1.2752  -1.2623
    -1.2558  -1.2424  -1.2423  -1.2115  -1.2105  -1.2026  -1.2004  -1.1663
    -1.1653  -1.1590  -1.1563  -1.1505  -1.1500  -1.1284  -1.1282  -1.1164
    -1.1097  -1.1094  -1.0971  -1.0967  -1.0949  -1.0928  -1.0813  -1.0697
    -1.0690  -1.0621  -1.0618  -1.0510  -1.0449  -1.0434  -1.0390  -0.9995
    -0.9961  -0.9933  -0.9904  -0.9903  -0.9870  -0.9502  -0.9337  -0.9330
    -0.9319  -0.9317  -0.9268  -0.9235  -0.9226  -0.9078  -0.9059  -0.8715
    -0.8709  -0.8637  -0.8634  -0.8409  -0.8405  -0.8308  -0.8014  -0.7936
    -0.7664  -0.7661  -0.7381  -0.7377  -0.7344  -0.7339  -0.7334  -0.7287
    -0.7242  -0.7237  -0.7193  -0.7183  -0.6872  -0.6867  -0.6699  -0.6676
    -0.6637  -0.6636  -0.6578  -0.6558  -0.6428  -0.3661  -0.3577  -0.3014
    -0.2935  -0.2611  -0.0990  -0.0357  -0.0344  -0.0012   0.2845   0.2852
     0.6114   0.6181   0.7130   0.7131   0.7528   0.7566   0.9004   0.9008
     1.0216   1.0236   1.1106   1.7079   1.7270   1.7278   1.7673   1.7713
     1.8107   1.8233   1.8972   1.8991   2.1039   2.1047   2.3360   2.4152
     2.4232   2.4369   2.8093   2.8194   2.8892   2.8909   2.8970   2.8987
     3.0488   3.0491   3.0745   3.1888   3.1962   3.4208   3.4330   3.5583
     3.5839   3.5860   3.8561   3.8575   3.9664   3.9813   3.9892   3.9906
     4.0445   4.1751   4.1791   4.4124   4.4128   4.4829   4.5005   4.6184
     4.6291   4.6413   4.6442   4.6671   4.8429   5.3973   5.4099   5.4404
     5.5501   5.5597   5.6100   5.6877   5.7364   5.7368   5.7432   5.8472
     5.8491   5.9064   5.9077   5.9453   5.9921   6.0439   6.0791   6.1645
     6.1793   6.2112   6.2183   6.2264   6.2448   6.2537   6.2557   6.2571

          k =-0.2500 0.2500-0.0833 (167653 PWs)   bands (ev):

   -19.8587  -7.6658  -6.7167  -6.1883  -6.1876  -5.7583  -5.3519  -5.2564
    -5.2557  -5.0601  -5.0594  -4.9463  -4.9432  -4.8635  -4.8420  -4.7675
    -4.6826  -4.6788  -4.6408  -4.6396  -4.4819  -4.4621  -4.4613  -4.4606
    -4.4545  -4.3993  -4.3979  -4.3867  -4.3859  -4.3496  -4.3426  -4.3374
    -4.2956  -4.2944  -4.2610  -4.2602  -4.2293  -4.2086  -4.2033  -4.1957
    -4.1905  -4.1774  -4.1772  -4.1458  -4.1178  -4.1178  -4.1137  -4.1103
    -4.0956  -4.0534  -4.0288  -4.0140  -4.0128  -4.0100  -4.0018  -3.9988
    -3.9963  -3.9957  -3.9882  -3.9320  -3.9067  -3.8814  -3.8806  -3.8660
    -3.8422  -3.8374  -3.8227  -3.8196  -3.8190  -3.8129  -3.8113  -3.7630
    -3.7629  -3.7503  -3.7475  -3.6453  -3.6420  -3.6392  -3.6340  -3.6009
    -3.5876  -3.5784  -3.5483  -3.5474  -3.5194  -3.5180  -3.4980  -3.4970
    -3.4842  -3.4814  -3.4288  -3.4276  -3.4083  -3.3950  -3.3831  -3.3817
    -3.3812  -3.3805  -3.3538  -3.3529  -3.3165  -3.3158  -3.2948  -3.2914
    -3.2618  -3.2578  -3.2430  -3.2152  -3.2141  -3.1778  -3.1774  -3.1418
    -3.1344  -3.1335  -3.1205  -3.1174  -3.1147  -3.1142  -3.0747  -3.0665
    -3.0255  -3.0254  -3.0170  -3.0077  -3.0067  -3.0063  -2.9815  -2.9811
    -2.9605  -2.9598  -2.9590  -2.9325  -2.9323  -2.9249  -2.9222  -2.9202
    -2.8857  -2.8818  -2.8468  -2.8467  -2.8455  -2.8426  -2.8412  -2.7627
    -2.7530  -2.7492  -2.7481  -2.7475  -2.7467  -2.7424  -2.7420  -2.7415
    -2.7413  -2.7317  -2.7239  -2.7076  -2.7049  -2.7041  -2.7012  -2.6891
    -2.6833  -2.6465  -2.6455  -2.6454  -2.6418  -2.6404  -2.6229  -2.6221
    -2.6139  -2.6121  -2.6111  -2.5523  -2.5512  -2.5464  -2.5459  -2.5423
    -2.5388  -2.5126  -2.4541  -2.4530  -2.4527  -2.4505  -2.4390  -2.4364
    -2.4329  -2.4214  -2.4212  -2.3854  -2.3834  -2.3764  -2.3757  -2.3747
    -2.3742  -2.3355  -2.3347  -2.3260  -2.3247  -2.3238  -2.3233  -2.2801
    -2.2716  -2.2584  -2.2063  -2.2062  -2.1908  -2.1881  -2.1813  -2.1797
    -2.1331  -2.1291  -2.1081  -2.0917  -2.0779  -2.0770  -2.0763  -2.0546
    -2.0540  -2.0449  -2.0325  -1.9996  -1.9873  -1.9759  -1.9738  -1.9729
    -1.9646  -1.9622  -1.9595  -1.9466  -1.9461  -1.9415  -1.9406  -1.9379
    -1.9368  -1.9238  -1.9237  -1.9170  -1.9060  -1.9043  -1.9032  -1.8946
    -1.8941  -1.8933  -1.8705  -1.8705  -1.8598  -1.8563  -1.8537  -1.8501
    -1.8139  -1.7809  -1.7798  -1.7445  -1.7278  -1.7269  -1.7178  -1.7121
    -1.6943  -1.6865  -1.6795  -1.6768  -1.6766  -1.6748  -1.6666  -1.6646
    -1.6402  -1.6399  -1.6397  -1.5949  -1.5941  -1.5543  -1.5520  -1.5076
    -1.5049  -1.4934  -1.4718  -1.4674  -1.4642  -1.4487  -1.4454  -1.4290
    -1.4288  -1.4248  -1.4239  -1.4233  -1.4214  -1.4178  -1.4164  -1.3986
    -1.3975  -1.3848  -1.3706  -1.3520  -1.3488  -1.3255  -1.3249  -1.3230
    -1.3220  -1.3185  -1.3117  -1.2959  -1.2882  -1.2810  -1.2722  -1.2624
    -1.2559  -1.2424  -1.2407  -1.2117  -1.2105  -1.2038  -1.2002  -1.1678
    -1.1663  -1.1592  -1.1582  -1.1511  -1.1464  -1.1283  -1.1281  -1.1165
    -1.1096  -1.1091  -1.0971  -1.0968  -1.0956  -1.0883  -1.0812  -1.0708
    -1.0677  -1.0620  -1.0618  -1.0488  -1.0468  -1.0403  -1.0390  -0.9985
    -0.9977  -0.9934  -0.9902  -0.9900  -0.9889  -0.9503  -0.9347  -0.9327
    -0.9322  -0.9304  -0.9297  -0.9227  -0.9195  -0.9104  -0.9076  -0.8717
    -0.8690  -0.8636  -0.8632  -0.8411  -0.8404  -0.8309  -0.8013  -0.7936
    -0.7668  -0.7655  -0.7380  -0.7377  -0.7344  -0.7342  -0.7334  -0.7289
    -0.7244  -0.7237  -0.7196  -0.7188  -0.6874  -0.6864  -0.6714  -0.6661
    -0.6639  -0.6630  -0.6624  -0.6521  -0.6428  -0.3662  -0.3577  -0.3057
    -0.2909  -0.2609  -0.0994  -0.0361  -0.0344   0.0010   0.2820   0.2874
     0.6089   0.6218   0.7120   0.7143   0.7516   0.7583   0.8942   0.9018
     1.0216   1.0236   1.1116   1.7100   1.7267   1.7290   1.7664   1.7711
     1.8043   1.8292   1.8942   1.9016   2.1025   2.1063   2.3378   2.4131
     2.4286   2.4367   2.8051   2.8240   2.8895   2.8903   2.8963   2.8997
     3.0480   3.0500   3.0735   3.1902   3.1917   3.4215   3.4245   3.5590
     3.5828   3.5883   3.8545   3.8573   3.9677   3.9887   3.9913   4.0045
     4.0296   4.1738   4.1788   4.4109   4.4133   4.4961   4.4985   4.5990
     4.6270   4.6285   4.6378   4.6668   4.8807   5.3712   5.4251   5.5050
     5.5460   5.5520   5.5792   5.6355   5.7339   5.7385   5.7482   5.8438
     5.8551   5.9055   5.9059   5.9417   6.0165   6.0184   6.1238   6.1372
     6.1859   6.2131   6.2276   6.2352   6.2387   6.2417   6.2539   6.2570

          k = 0.2500-0.2500-0.0833 (167653 PWs)   bands (ev):

   -19.8587  -7.6658  -6.7167  -6.1883  -6.1876  -5.7583  -5.3519  -5.2564
    -5.2557  -5.0601  -5.0594  -4.9463  -4.9432  -4.8635  -4.8420  -4.7675
    -4.6826  -4.6788  -4.6408  -4.6396  -4.4819  -4.4621  -4.4613  -4.4606
    -4.4545  -4.3993  -4.3979  -4.3867  -4.3859  -4.3496  -4.3426  -4.3374
    -4.2956  -4.2944  -4.2610  -4.2602  -4.2293  -4.2086  -4.2033  -4.1957
    -4.1905  -4.1774  -4.1772  -4.1458  -4.1178  -4.1178  -4.1137  -4.1103
    -4.0956  -4.0534  -4.0288  -4.0140  -4.0128  -4.0100  -4.0018  -3.9988
    -3.9963  -3.9957  -3.9882  -3.9320  -3.9067  -3.8814  -3.8806  -3.8660
    -3.8422  -3.8374  -3.8227  -3.8196  -3.8190  -3.8129  -3.8113  -3.7630
    -3.7629  -3.7503  -3.7475  -3.6453  -3.6420  -3.6392  -3.6340  -3.6009
    -3.5876  -3.5784  -3.5483  -3.5474  -3.5194  -3.5180  -3.4980  -3.4970
    -3.4842  -3.4814  -3.4288  -3.4276  -3.4083  -3.3950  -3.3831  -3.3817
    -3.3812  -3.3805  -3.3538  -3.3529  -3.3165  -3.3158  -3.2948  -3.2914
    -3.2618  -3.2578  -3.2430  -3.2152  -3.2141  -3.1778  -3.1774  -3.1418
    -3.1344  -3.1335  -3.1205  -3.1174  -3.1147  -3.1142  -3.0747  -3.0665
    -3.0255  -3.0254  -3.0170  -3.0077  -3.0067  -3.0063  -2.9815  -2.9811
    -2.9605  -2.9598  -2.9590  -2.9325  -2.9323  -2.9249  -2.9222  -2.9202
    -2.8857  -2.8818  -2.8468  -2.8467  -2.8455  -2.8426  -2.8412  -2.7627
    -2.7530  -2.7492  -2.7481  -2.7475  -2.7467  -2.7424  -2.7420  -2.7415
    -2.7413  -2.7317  -2.7239  -2.7076  -2.7049  -2.7041  -2.7012  -2.6891
    -2.6833  -2.6465  -2.6455  -2.6454  -2.6418  -2.6404  -2.6229  -2.6221
    -2.6139  -2.6121  -2.6111  -2.5523  -2.5512  -2.5464  -2.5459  -2.5423
    -2.5388  -2.5126  -2.4541  -2.4530  -2.4527  -2.4505  -2.4390  -2.4364
    -2.4329  -2.4214  -2.4212  -2.3854  -2.3834  -2.3764  -2.3757  -2.3747
    -2.3742  -2.3355  -2.3347  -2.3260  -2.3247  -2.3238  -2.3233  -2.2801
    -2.2716  -2.2584  -2.2063  -2.2062  -2.1908  -2.1881  -2.1813  -2.1797
    -2.1331  -2.1291  -2.1081  -2.0917  -2.0779  -2.0770  -2.0763  -2.0546
    -2.0540  -2.0449  -2.0325  -1.9996  -1.9873  -1.9759  -1.9738  -1.9729
    -1.9646  -1.9622  -1.9595  -1.9466  -1.9461  -1.9415  -1.9406  -1.9379
    -1.9368  -1.9238  -1.9237  -1.9170  -1.9060  -1.9043  -1.9032  -1.8946
    -1.8941  -1.8933  -1.8705  -1.8705  -1.8598  -1.8563  -1.8537  -1.8501
    -1.8139  -1.7809  -1.7798  -1.7445  -1.7278  -1.7269  -1.7178  -1.7121
    -1.6943  -1.6865  -1.6795  -1.6768  -1.6766  -1.6748  -1.6666  -1.6646
    -1.6402  -1.6399  -1.6397  -1.5949  -1.5941  -1.5543  -1.5520  -1.5076
    -1.5049  -1.4934  -1.4718  -1.4674  -1.4642  -1.4487  -1.4454  -1.4290
    -1.4288  -1.4248  -1.4239  -1.4233  -1.4214  -1.4178  -1.4164  -1.3986
    -1.3975  -1.3848  -1.3706  -1.3520  -1.3488  -1.3255  -1.3249  -1.3230
    -1.3220  -1.3185  -1.3117  -1.2959  -1.2882  -1.2810  -1.2722  -1.2624
    -1.2559  -1.2424  -1.2407  -1.2117  -1.2105  -1.2038  -1.2002  -1.1678
    -1.1663  -1.1592  -1.1582  -1.1511  -1.1464  -1.1283  -1.1281  -1.1165
    -1.1096  -1.1091  -1.0971  -1.0968  -1.0956  -1.0883  -1.0812  -1.0708
    -1.0677  -1.0620  -1.0618  -1.0488  -1.0468  -1.0403  -1.0390  -0.9985
    -0.9977  -0.9934  -0.9902  -0.9900  -0.9889  -0.9503  -0.9347  -0.9327
    -0.9322  -0.9304  -0.9297  -0.9227  -0.9195  -0.9104  -0.9076  -0.8717
    -0.8690  -0.8636  -0.8632  -0.8411  -0.8404  -0.8309  -0.8013  -0.7936
    -0.7668  -0.7655  -0.7380  -0.7377  -0.7344  -0.7342  -0.7334  -0.7289
    -0.7244  -0.7237  -0.7196  -0.7188  -0.6874  -0.6864  -0.6714  -0.6661
    -0.6639  -0.6630  -0.6624  -0.6521  -0.6428  -0.3662  -0.3577  -0.3057
    -0.2909  -0.2609  -0.0994  -0.0361  -0.0344   0.0010   0.2820   0.2874
     0.6089   0.6218   0.7120   0.7143   0.7516   0.7583   0.8942   0.9018
     1.0216   1.0236   1.1116   1.7100   1.7267   1.7290   1.7664   1.7711
     1.8043   1.8292   1.8942   1.9016   2.1025   2.1063   2.3378   2.4131
     2.4286   2.4367   2.8051   2.8240   2.8895   2.8903   2.8963   2.8997
     3.0480   3.0500   3.0735   3.1902   3.1917   3.4215   3.4245   3.5590
     3.5828   3.5883   3.8545   3.8573   3.9677   3.9887   3.9913   4.0045
     4.0296   4.1738   4.1788   4.4109   4.4133   4.4961   4.4985   4.5990
     4.6271   4.6285   4.6378   4.6668   4.8807   5.3712   5.4251   5.5049
     5.5460   5.5520   5.5794   5.6354   5.7339   5.7385   5.7482   5.8438
     5.8551   5.9055   5.9059   5.9417   6.0163   6.0186   6.1235   6.1375
     6.1859   6.2132   6.2276   6.2352   6.2386   6.2417   6.2539   6.2570

          k =-0.2500 0.2500 0.2500 (167588 PWs)   bands (ev):

   -19.8587  -7.6658  -6.7167  -6.1883  -6.1876  -5.7583  -5.3519  -5.2564
    -5.2557  -5.0601  -5.0594  -4.9463  -4.9432  -4.8635  -4.8420  -4.7675
    -4.6826  -4.6788  -4.6408  -4.6396  -4.4819  -4.4621  -4.4613  -4.4606
    -4.4545  -4.3993  -4.3979  -4.3867  -4.3859  -4.3496  -4.3426  -4.3374
    -4.2956  -4.2944  -4.2610  -4.2602  -4.2293  -4.2086  -4.2033  -4.1957
    -4.1905  -4.1774  -4.1772  -4.1458  -4.1178  -4.1178  -4.1137  -4.1103
    -4.0956  -4.0534  -4.0288  -4.0140  -4.0128  -4.0100  -4.0018  -3.9988
    -3.9963  -3.9957  -3.9882  -3.9320  -3.9067  -3.8814  -3.8806  -3.8660
    -3.8422  -3.8374  -3.8227  -3.8196  -3.8190  -3.8129  -3.8113  -3.7630
    -3.7629  -3.7503  -3.7475  -3.6453  -3.6420  -3.6392  -3.6340  -3.6009
    -3.5876  -3.5784  -3.5483  -3.5474  -3.5194  -3.5180  -3.4980  -3.4970
    -3.4842  -3.4814  -3.4288  -3.4276  -3.4083  -3.3950  -3.3831  -3.3817
    -3.3812  -3.3805  -3.3538  -3.3529  -3.3165  -3.3158  -3.2948  -3.2914
    -3.2618  -3.2577  -3.2430  -3.2152  -3.2141  -3.1778  -3.1774  -3.1418
    -3.1344  -3.1335  -3.1205  -3.1174  -3.1147  -3.1142  -3.0747  -3.0665
    -3.0255  -3.0254  -3.0170  -3.0077  -3.0067  -3.0063  -2.9815  -2.9811
    -2.9605  -2.9598  -2.9590  -2.9324  -2.9323  -2.9249  -2.9222  -2.9202
    -2.8857  -2.8818  -2.8468  -2.8467  -2.8455  -2.8426  -2.8412  -2.7627
    -2.7530  -2.7492  -2.7481  -2.7475  -2.7467  -2.7424  -2.7420  -2.7415
    -2.7413  -2.7317  -2.7239  -2.7076  -2.7049  -2.7041  -2.7012  -2.6891
    -2.6832  -2.6465  -2.6455  -2.6454  -2.6418  -2.6404  -2.6229  -2.6221
    -2.6139  -2.6121  -2.6111  -2.5523  -2.5512  -2.5464  -2.5459  -2.5422
    -2.5388  -2.5126  -2.4541  -2.4530  -2.4527  -2.4505  -2.4390  -2.4364
    -2.4329  -2.4214  -2.4212  -2.3854  -2.3834  -2.3764  -2.3757  -2.3747
    -2.3742  -2.3355  -2.3348  -2.3260  -2.3247  -2.3238  -2.3233  -2.2801
    -2.2716  -2.2584  -2.2063  -2.2061  -2.1908  -2.1881  -2.1813  -2.1797
    -2.1331  -2.1291  -2.1081  -2.0917  -2.0779  -2.0770  -2.0763  -2.0546
    -2.0540  -2.0449  -2.0325  -1.9996  -1.9873  -1.9759  -1.9737  -1.9729
    -1.9646  -1.9622  -1.9595  -1.9466  -1.9461  -1.9415  -1.9406  -1.9379
    -1.9368  -1.9238  -1.9237  -1.9170  -1.9060  -1.9043  -1.9032  -1.8946
    -1.8941  -1.8933  -1.8705  -1.8705  -1.8598  -1.8563  -1.8537  -1.8501
    -1.8140  -1.7809  -1.7798  -1.7445  -1.7278  -1.7269  -1.7178  -1.7121
    -1.6943  -1.6865  -1.6795  -1.6768  -1.6766  -1.6748  -1.6666  -1.6646
    -1.6402  -1.6399  -1.6397  -1.5949  -1.5941  -1.5543  -1.5520  -1.5076
    -1.5049  -1.4935  -1.4718  -1.4674  -1.4642  -1.4487  -1.4454  -1.4290
    -1.4288  -1.4248  -1.4239  -1.4233  -1.4214  -1.4178  -1.4164  -1.3986
    -1.3975  -1.3848  -1.3706  -1.3520  -1.3488  -1.3255  -1.3249  -1.3230
    -1.3220  -1.3185  -1.3117  -1.2959  -1.2882  -1.2810  -1.2722  -1.2624
    -1.2559  -1.2424  -1.2407  -1.2118  -1.2105  -1.2038  -1.2002  -1.1678
    -1.1663  -1.1592  -1.1582  -1.1511  -1.1464  -1.1283  -1.1281  -1.1165
    -1.1096  -1.1091  -1.0971  -1.0968  -1.0956  -1.0883  -1.0812  -1.0708
    -1.0677  -1.0620  -1.0618  -1.0488  -1.0467  -1.0403  -1.0390  -0.9985
    -0.9977  -0.9934  -0.9902  -0.9900  -0.9889  -0.9503  -0.9346  -0.9327
    -0.9322  -0.9304  -0.9297  -0.9227  -0.9195  -0.9104  -0.9076  -0.8717
    -0.8690  -0.8636  -0.8632  -0.8411  -0.8404  -0.8309  -0.8013  -0.7936
    -0.7667  -0.7655  -0.7380  -0.7377  -0.7344  -0.7342  -0.7334  -0.7289
    -0.7244  -0.7237  -0.7196  -0.7188  -0.6874  -0.6864  -0.6714  -0.6661
    -0.6639  -0.6630  -0.6624  -0.6521  -0.6428  -0.3662  -0.3577  -0.3057
    -0.2909  -0.2609  -0.0994  -0.0361  -0.0344   0.0010   0.2820   0.2874
     0.6089   0.6218   0.7120   0.7143   0.7516   0.7583   0.8942   0.9018
     1.0216   1.0237   1.1116   1.7100   1.7267   1.7290   1.7665   1.7711
     1.8043   1.8292   1.8942   1.9016   2.1025   2.1063   2.3378   2.4131
     2.4286   2.4367   2.8051   2.8240   2.8895   2.8903   2.8963   2.8997
     3.0480   3.0500   3.0735   3.1902   3.1917   3.4215   3.4245   3.5590
     3.5828   3.5883   3.8545   3.8573   3.9677   3.9887   3.9913   4.0046
     4.0297   4.1738   4.1788   4.4109   4.4133   4.4960   4.4984   4.5983
     4.6270   4.6285   4.6378   4.6668   4.8789   5.3711   5.4094   5.4915
     5.5415   5.5517   5.5708   5.7323   5.7341   5.7383   5.7466   5.8433
     5.8558   5.9054   5.9063   5.9430   5.9972   6.0424   6.0746   6.1962
     6.2096   6.2170   6.2172   6.2315   6.2415   6.2479   6.2570   6.2603

     the Fermi energy is     0.9728 ev

!    total energy              =   -7425.29384636 Ry
     Harris-Foulkes estimate   =   -7425.29384637 Ry
     estimated scf accuracy    <          7.1E-09 Ry

     The total energy is the sum of the following terms:

     one-electron contribution =  -48796.66726498 Ry
     hartree contribution      =   24952.14414660 Ry
     xc contribution           =   -3604.21995145 Ry
     ewald contribution        =   20023.45210856 Ry
     smearing contrib. (-TS)   =      -0.00288509 Ry

     convergence has been achieved in  23 iterations

     Writing output data file 4108988.save

     init_run     :    133.38s CPU    138.34s WALL (       1 calls)
     electrons    :   7374.46s CPU   7747.55s WALL (       1 calls)

     Called by init_run:
     wfcinit      :    100.98s CPU    105.27s WALL (       1 calls)
     potinit      :      6.23s CPU      6.57s WALL (       1 calls)

     Called by electrons:
     c_bands      :   5946.02s CPU   6246.76s WALL (      24 calls)
     sum_band     :    969.70s CPU   1026.95s WALL (      24 calls)
     v_of_rho     :     87.38s CPU     97.26s WALL (      24 calls)
     newd         :    384.60s CPU    388.38s WALL (      24 calls)
     mix_rho      :      2.62s CPU      2.92s WALL (      24 calls)
     vdW_energy   :      8.26s CPU      8.94s WALL (      24 calls)
     vdW_ffts     :     42.00s CPU     47.16s WALL (      48 calls)
     vdW_v        :     11.22s CPU     11.92s WALL (      24 calls)

     Called by c_bands:
     init_us_2    :     12.13s CPU     12.35s WALL (     294 calls)
     cegterg      :   5858.62s CPU   6125.82s WALL (     144 calls)

     Called by *egterg:
     h_psi        :   2622.52s CPU   2861.15s WALL (     835 calls)
     s_psi        :    319.89s CPU    321.33s WALL (     835 calls)
     g_psi        :      4.04s CPU      4.12s WALL (     685 calls)
     cdiaghg      :   1588.01s CPU   1592.00s WALL (     823 calls)

     Called by h_psi:
     add_vuspsi   :    321.15s CPU    322.56s WALL (     835 calls)

     General routines
     calbec       :    560.00s CPU    561.52s WALL (     979 calls)
     fft          :    222.16s CPU    231.66s WALL (    1584 calls)
     ffts         :      1.44s CPU      1.69s WALL (      48 calls)
     fftw         :   2153.36s CPU   2432.73s WALL (  398866 calls)
     interpolate  :      3.80s CPU      4.42s WALL (      48 calls)
     davcio       :      0.01s CPU      0.16s WALL (       6 calls)

     Parallel routines
     fft_scatter  :   1854.10s CPU   2113.40s WALL (  400498 calls)

     PWSCF        :     2h 5m CPU        2h11m WALL


   This run was terminated on:  13:47:53  24Aug2015            

=------------------------------------------------------------------------------=
   JOB DONE.
=------------------------------------------------------------------------------=
