Setting SGE environment for SCC

     Program PWSCF v.5.1.2 starts on  3Jul2015 at  8:40:35 

     This program is part of the open-source Quantum ESPRESSO suite
     for quantum simulation of materials; please cite
         "P. Giannozzi et al., J. Phys.:Condens. Matter 21 395502 (2009);
          URL http://www.quantum-espresso.org", 
     in publications or presentations arising from this work. More details at
     http://www.quantum-espresso.org/quote

     Parallel version (MPI), running on    32 processors
     R & G space division:  proc/nbgrp/npool/nimage =      32
     Reading input from hollow.O1.Au5859.d.2.5.phi.0.psi.90.in
Warning: card &IONS ignored
Warning: card / ignored
Warning: card &CELL ignored
Warning: card / ignored

     Current dimensions of program PWSCF are:
     Max number of different atomic species (ntypx) = 10
     Max number of k-points (npk) =  40000
     Max angular momentum in pseudopotentials (lmaxx) =  3

     IMPORTANT: XC functional enforced from input :
     Exchange-correlation      = VDW-DF ( 1  4  4  0 1 0)
     Any further DFT definition will be discarded
     Please, verify this is what you really want


     Subspace diagonalization in iterative solution of the eigenvalue problem:
     a serial algorithm will be used


     Parallelization info
     --------------------
     sticks:   dense  smooth     PW     G-vecs:    dense   smooth      PW
     Min         578     289     74               118518    41891    5486
     Max         579     290     75               118533    41932    5497
     Sum       18505    9265   2385              3792731  1341081  175711


     Title: 
     hollow.O1.Au5859.d.2.5.phi.0.psi.90                                        


     bravais-lattice index     =            8
     lattice parameter (alat)  =      24.1233  a.u.
     unit-cell volume          =   28076.2361 (a.u.)^3
     number of atoms/cell      =           75
     number of atomic types    =            3
     number of electrons       =       800.00
     number of Kohn-Sham states=          480
     kinetic-energy cutoff     =      50.0000  Ry
     charge density cutoff     =     400.0000  Ry
     convergence threshold     =      1.0E-08
     mixing beta               =       0.7000
     number of iterations used =            8  plain     mixing
     Exchange-correlation      = VDW-DF ( 1  4  4  0 1 0)

     celldm(1)=  24.123277  celldm(2)=   1.000000  celldm(3)=   2.000000
     celldm(4)=   0.000000  celldm(5)=   0.000000  celldm(6)=   0.000000

     crystal axes: (cart. coord. in units of alat)
               a(1) = (   1.000000   0.000000   0.000000 )  
               a(2) = (   0.000000   1.000000   0.000000 )  
               a(3) = (   0.000000   0.000000   2.000000 )  

     reciprocal axes: (cart. coord. in units 2 pi/alat)
               b(1) = (  1.000000  0.000000  0.000000 )  
               b(2) = (  0.000000  1.000000  0.000000 )  
               b(3) = (  0.000000  0.000000  0.500000 )  


     PseudoPot. # 1 for Au read from file:
     /home/scc/andrejb/qe/pseudo/Au.pbe-nd-van.UPF
     MD5 check sum: 458681b50f36d87ef23c61b04bba420a
     Pseudo is Ultrasoft + core correction, Zval = 11.0
     Generated by new atomic code, or converted to UPF format
     Using radial grid of  985 points,  3 beta functions with: 
                l(1) =   1
                l(2) =   2
                l(3) =   2
     Q(r) pseudized with  8 coefficients,  rinner =    1.100   1.100   1.100
                                                       1.100   1.100

     PseudoPot. # 2 for H  read from file:
     /home/scc/andrejb/qe/pseudo/H.pbe-van_ak.UPF
     MD5 check sum: 403db7282739603aa925980fa9b8608d
     Pseudo is Ultrasoft, Zval =  1.0
     Generated by new atomic code, or converted to UPF format
     Using radial grid of  615 points,  1 beta functions with: 
                l(1) =   0
     Q(r) pseudized with  8 coefficients,  rinner =    0.800

     PseudoPot. # 3 for O  read from file:
     /home/scc/andrejb/qe/pseudo/O.pbe-van_ak.UPF
     MD5 check sum: 4b8c549914a63cae506c6ff22b5af4fe
     Pseudo is Ultrasoft, Zval =  6.0
     Generated by new atomic code, or converted to UPF format
     Using radial grid of  737 points,  4 beta functions with: 
                l(1) =   0
                l(2) =   0
                l(3) =   1
                l(4) =   1
     Q(r) pseudized with  8 coefficients,  rinner =    0.800   0.800   0.800


     vdW kernel table read from file vdW_kernel_table
     MD5 check sum: 48e77a2e26edf626eeb0eaa751ad5cac

     atomic species   valence    mass     pseudopotential
        Au            11.00   196.96657     Au( 1.00)
        H              1.00     1.01000     H ( 1.00)
        O              6.00    16.00000     O ( 1.00)

     No symmetry found



   Cartesian axes

     site n.     atom                  positions (alat units)
         1           O   tau(   1) = (   0.1666051   0.1666105   0.6951546  )
         2           H   tau(   2) = (   0.1195275   0.1211166   0.6559831  )
         3           H   tau(   3) = (   0.2122554   0.1187528   0.7331562  )
         4           Au  tau(   4) = (   0.0000000   0.0000000   0.0000000  )
         5           Au  tau(   5) = (   0.3332217   0.0000000   0.0000000  )
         6           Au  tau(   6) = (   0.6664434   0.0000000   0.0000000  )
         7           Au  tau(   7) = (   0.1666109   0.1666109   0.0000000  )
         8           Au  tau(   8) = (   0.4998326   0.1666109   0.0000000  )
         9           Au  tau(   9) = (   0.8330542   0.1666109   0.0000000  )
        10           Au  tau(  10) = (   0.0000000   0.3332217   0.0000000  )
        11           Au  tau(  11) = (   0.3332217   0.3332217   0.0000000  )
        12           Au  tau(  12) = (   0.6664434   0.3332217   0.0000000  )
        13           Au  tau(  13) = (   0.1666109   0.4998326   0.0000000  )
        14           Au  tau(  14) = (   0.4998326   0.4998326   0.0000000  )
        15           Au  tau(  15) = (   0.8330542   0.4998326   0.0000000  )
        16           Au  tau(  16) = (   0.0000000   0.6664434   0.0000000  )
        17           Au  tau(  17) = (   0.3332217   0.6664434   0.0000000  )
        18           Au  tau(  18) = (   0.6664434   0.6664434   0.0000000  )
        19           Au  tau(  19) = (   0.1666109   0.8330542   0.0000000  )
        20           Au  tau(  20) = (   0.4998326   0.8330542   0.0000000  )
        21           Au  tau(  21) = (   0.8330542   0.8330542   0.0000000  )
        22           Au  tau(  22) = (   0.1666109   0.0000000   0.1666109  )
        23           Au  tau(  23) = (   0.4998326   0.0000000   0.1666109  )
        24           Au  tau(  24) = (   0.8330542   0.0000000   0.1666109  )
        25           Au  tau(  25) = (   0.0000000   0.1666109   0.1666109  )
        26           Au  tau(  26) = (   0.3332217   0.1666109   0.1666109  )
        27           Au  tau(  27) = (   0.6664434   0.1666109   0.1666109  )
        28           Au  tau(  28) = (   0.1666109   0.3332217   0.1666109  )
        29           Au  tau(  29) = (   0.4998326   0.3332217   0.1666109  )
        30           Au  tau(  30) = (   0.8330542   0.3332217   0.1666109  )
        31           Au  tau(  31) = (   0.0000000   0.4998326   0.1666109  )
        32           Au  tau(  32) = (   0.3332217   0.4998326   0.1666109  )
        33           Au  tau(  33) = (   0.6664434   0.4998326   0.1666109  )
        34           Au  tau(  34) = (   0.1666109   0.6664434   0.1666109  )
        35           Au  tau(  35) = (   0.4998326   0.6664434   0.1666109  )
        36           Au  tau(  36) = (   0.8330542   0.6664434   0.1666109  )
        37           Au  tau(  37) = (   0.0000000   0.8330542   0.1666109  )
        38           Au  tau(  38) = (   0.3332217   0.8330542   0.1666109  )
        39           Au  tau(  39) = (   0.6664434   0.8330542   0.1666109  )
        40           Au  tau(  40) = (  -0.0000182  -0.0000182   0.3335478  )
        41           Au  tau(  41) = (   0.3332215  -0.0000181   0.3335473  )
        42           Au  tau(  42) = (   0.6664447  -0.0000183   0.3335481  )
        43           Au  tau(  43) = (  -0.0000181   0.3332215   0.3335473  )
        44           Au  tau(  44) = (   0.3332215   0.3332215   0.3335468  )
        45           Au  tau(  45) = (   0.6664445   0.3332215   0.3335477  )
        46           Au  tau(  46) = (  -0.0000183   0.6664447   0.3335481  )
        47           Au  tau(  47) = (   0.3332215   0.6664445   0.3335477  )
        48           Au  tau(  48) = (   0.6664446   0.6664446   0.3335486  )
        49           Au  tau(  49) = (   0.1666097   0.1666097   0.3335483  )
        50           Au  tau(  50) = (   0.4998320   0.1666098   0.3335477  )
        51           Au  tau(  51) = (   0.8330732   0.1666096   0.3335480  )
        52           Au  tau(  52) = (   0.1666098   0.4998320   0.3335477  )
        53           Au  tau(  53) = (   0.4998322   0.4998322   0.3335470  )
        54           Au  tau(  54) = (   0.8330731   0.4998322   0.3335474  )
        55           Au  tau(  55) = (   0.1666096   0.8330732   0.3335480  )
        56           Au  tau(  56) = (   0.4998322   0.8330731   0.3335474  )
        57           Au  tau(  57) = (   0.8330731   0.8330731   0.3335478  )
        58           Au  tau(  58) = (   0.1666104  -0.0000111   0.4993095  )
        59           Au  tau(  59) = (   0.4998323  -0.0000112   0.4993099  )
        60           Au  tau(  60) = (   0.8330660  -0.0000111   0.4993009  )
        61           Au  tau(  61) = (  -0.0000111   0.1666104   0.4993095  )
        62           Au  tau(  62) = (   0.3332213   0.1666106   0.4993185  )
        63           Au  tau(  63) = (   0.6664437   0.1666106   0.4993187  )
        64           Au  tau(  64) = (   0.1666106   0.3332213   0.4993185  )
        65           Au  tau(  65) = (   0.4998324   0.3332216   0.4993185  )
        66           Au  tau(  66) = (   0.8330658   0.3332215   0.4993102  )
        67           Au  tau(  67) = (  -0.0000112   0.4998323   0.4993099  )
        68           Au  tau(  68) = (   0.3332216   0.4998324   0.4993185  )
        69           Au  tau(  69) = (   0.6664437   0.4998325   0.4993187  )
        70           Au  tau(  70) = (   0.1666106   0.6664437   0.4993187  )
        71           Au  tau(  71) = (   0.4998325   0.6664437   0.4993187  )
        72           Au  tau(  72) = (   0.8330658   0.6664438   0.4993102  )
        73           Au  tau(  73) = (  -0.0000111   0.8330660   0.4993009  )
        74           Au  tau(  74) = (   0.3332215   0.8330658   0.4993102  )
        75           Au  tau(  75) = (   0.6664438   0.8330658   0.4993102  )

     number of k points=     6  Marzari-Vanderbilt smearing, width (Ry)=  0.0200
                       cart. coord. in units 2pi/alat
        k(    1) = (   0.2500000   0.2500000   0.0833333), wk =   0.3333333
        k(    2) = (   0.2500000   0.2500000  -0.2500000), wk =   0.3333333
        k(    3) = (  -0.2500000  -0.2500000   0.0833333), wk =   0.3333333
        k(    4) = (  -0.2500000   0.2500000  -0.0833333), wk =   0.3333333
        k(    5) = (   0.2500000  -0.2500000  -0.0833333), wk =   0.3333333
        k(    6) = (  -0.2500000   0.2500000   0.2500000), wk =   0.3333333

     Dense  grid:  3792731 G-vectors     FFT dimensions: ( 160, 160, 320)

     Smooth grid:  1341081 G-vectors     FFT dimensions: ( 120, 120, 225)

     Largest allocated arrays     est. size (Mb)     dimensions
        Kohn-Sham Wavefunctions        38.58 Mb     (    5267,  480)
        NL pseudopotentials            76.03 Mb     (    5267,  946)
        Each V/rho on FFT grid          3.91 Mb     (  256000)
        Each G-vector array             0.90 Mb     (  118520)
        G-vector shells                 0.08 Mb     (   10286)
     Largest temporary arrays     est. size (Mb)     dimensions
        Auxiliary wavefunctions       154.31 Mb     (    5267, 1920)
        Each subspace H/S matrix       56.25 Mb     (    1920, 1920)
        Each <psi_i|beta_j> matrix      6.93 Mb     (     946,  480)
        Arrays for rho mixing          31.25 Mb     (  256000,    8)

     Initial potential from superposition of free atoms
     Check: negative starting charge=   -1.945195

     starting charge  799.16392, renormalised to  800.00000

     negative rho (up, down):  1.947E+00 0.000E+00


     ************************************************************************
     *
     * You are using vdW-DF for exchange-correlation in this calculation.
     * Please cite the following three references that made this development
     * possible:
     *
     *   M. Dion, H. Rydberg, E. Schroder, D. C. Langreth, and
     *   B. I. Lundqvist, Phys. Rev. Lett. 92, 246401 (2004).
     *
     *   T. Thonhauser, V. R. Cooper, S. Li, A. Puzder, P. Hyldgaard, and
     *   D. C. Langreth, Phys. Rev. B 76, 125112 (2007).
     *
     *   G. Roman-Perez and J. M. Soler, Phys. Rev. Lett. 103, 096102 (2009).
     *
     *
     * If you are using vdW-DF2, please also cite:
     *
     *   K. Lee, E. D. Murray, L. Kong, B. I. Lundqvist, and
     *   D. C. Langreth, Phys. Rev. B 82, 081101(R) (2010).
     *
     *
     * If you are calculating the stress with vdW-DF, please also cite:
     *
     *   R. Sabatini, E. Kucukbenli, B. Kolb, T. Thonhauser, and
     *   S. de Gironcoli, J. Phys.: Condens. Matter 24, 424209 (2012).
     *
     ************************************************************************

     Carrying out vdW-DF run using the following parameters:

     Nqs =      20    Nr_points =    1024   r_max =   100.000
     q_mesh =
               0.00001000     0.04494208     0.09755937     0.15916263
               0.23128650     0.31572767     0.41458969     0.53033537
               0.66584808     0.82450364     1.01025438     1.22772762
               1.48234092     1.78043706     2.12944203     2.53805004
               3.01644009     3.57652955     4.23227104     5.00000000

     Gradients computed in reciprocal space

     ************************************************************************


     Starting wfc are  654 randomized atomic wfcs

     total cpu time spent up to now is      139.7 secs

     Self-consistent Calculation

     iteration #  1     ecut=    50.00 Ry     beta=0.70
     Davidson diagonalization with overlap
     ethr =  1.00E-02,  avg # of iterations =  3.0

     Threshold (ethr) on eigenvalues was too large:
     Diagonalizing with lowered threshold

     Davidson diagonalization with overlap
     ethr =  4.19E-04,  avg # of iterations =  2.0

     negative rho (up, down):  1.947E+00 0.000E+00

     total cpu time spent up to now is      646.0 secs

     total energy              =   -7423.04161399 Ry
     Harris-Foulkes estimate   =   -7426.05984633 Ry
     estimated scf accuracy    <       3.72971143 Ry

     iteration #  2     ecut=    50.00 Ry     beta=0.70
     Davidson diagonalization with overlap
     ethr =  4.66E-04,  avg # of iterations = 11.5

     negative rho (up, down):  1.942E+00 0.000E+00

     total cpu time spent up to now is     1696.0 secs

     total energy              =   -7415.21750877 Ry
     Harris-Foulkes estimate   =   -7432.57968685 Ry
     estimated scf accuracy    <      90.34911848 Ry

     iteration #  3     ecut=    50.00 Ry     beta=0.70
     Davidson diagonalization with overlap
     ethr =  4.66E-04,  avg # of iterations =  6.0

     negative rho (up, down):  1.953E+00 0.000E+00

     total cpu time spent up to now is     2292.7 secs

     total energy              =   -7424.33188709 Ry
     Harris-Foulkes estimate   =   -7425.85528338 Ry
     estimated scf accuracy    <       5.94359139 Ry

     iteration #  4     ecut=    50.00 Ry     beta=0.70
     Davidson diagonalization with overlap
     ethr =  4.66E-04,  avg # of iterations =  6.7

     negative rho (up, down):  1.956E+00 0.000E+00

     total cpu time spent up to now is     2621.6 secs

     total energy              =   -7424.83885043 Ry
     Harris-Foulkes estimate   =   -7425.66284607 Ry
     estimated scf accuracy    <       5.17569273 Ry

     iteration #  5     ecut=    50.00 Ry     beta=0.70
     Davidson diagonalization with overlap
     ethr =  4.66E-04,  avg # of iterations =  4.0

     negative rho (up, down):  1.963E+00 0.000E+00

     total cpu time spent up to now is     2902.1 secs

     total energy              =   -7425.15836411 Ry
     Harris-Foulkes estimate   =   -7425.47359632 Ry
     estimated scf accuracy    <       2.12191932 Ry

     iteration #  6     ecut=    50.00 Ry     beta=0.70
     Davidson diagonalization with overlap
     ethr =  2.65E-04,  avg # of iterations =  4.0

     negative rho (up, down):  1.967E+00 0.000E+00

     total cpu time spent up to now is     3172.0 secs

     total energy              =   -7425.26542513 Ry
     Harris-Foulkes estimate   =   -7425.32136234 Ry
     estimated scf accuracy    <       0.20002938 Ry

     iteration #  7     ecut=    50.00 Ry     beta=0.70
     Davidson diagonalization with overlap
     ethr =  2.50E-05,  avg # of iterations =  5.7

     negative rho (up, down):  1.970E+00 0.000E+00

     total cpu time spent up to now is     3496.8 secs

     total energy              =   -7425.27398308 Ry
     Harris-Foulkes estimate   =   -7425.31234828 Ry
     estimated scf accuracy    <       0.18896637 Ry

     iteration #  8     ecut=    50.00 Ry     beta=0.70
     Davidson diagonalization with overlap
     ethr =  2.36E-05,  avg # of iterations =  3.0

     negative rho (up, down):  1.971E+00 0.000E+00

     total cpu time spent up to now is     3755.4 secs

     total energy              =   -7425.28055102 Ry
     Harris-Foulkes estimate   =   -7425.29877701 Ry
     estimated scf accuracy    <       0.07011869 Ry

     iteration #  9     ecut=    50.00 Ry     beta=0.70
     Davidson diagonalization with overlap
     ethr =  8.76E-06,  avg # of iterations = 14.2

     negative rho (up, down):  1.972E+00 0.000E+00

     total cpu time spent up to now is     4216.3 secs

     total energy              =   -7425.28407524 Ry
     Harris-Foulkes estimate   =   -7425.29164384 Ry
     estimated scf accuracy    <       0.02335373 Ry

     iteration # 10     ecut=    50.00 Ry     beta=0.70
     Davidson diagonalization with overlap
     ethr =  2.92E-06,  avg # of iterations =  6.5

     negative rho (up, down):  1.972E+00 0.000E+00

     total cpu time spent up to now is     4544.5 secs

     total energy              =   -7425.28632792 Ry
     Harris-Foulkes estimate   =   -7425.28835781 Ry
     estimated scf accuracy    <       0.00532869 Ry

     iteration # 11     ecut=    50.00 Ry     beta=0.70
     Davidson diagonalization with overlap
     ethr =  6.66E-07,  avg # of iterations =  5.3

     negative rho (up, down):  1.973E+00 0.000E+00

     total cpu time spent up to now is     4858.8 secs

     total energy              =   -7425.28690731 Ry
     Harris-Foulkes estimate   =   -7425.28781573 Ry
     estimated scf accuracy    <       0.00271525 Ry

     iteration # 12     ecut=    50.00 Ry     beta=0.70
     Davidson diagonalization with overlap
     ethr =  3.39E-07,  avg # of iterations =  2.0

     negative rho (up, down):  1.973E+00 0.000E+00

     total cpu time spent up to now is     5100.8 secs

     total energy              =   -7425.28688142 Ry
     Harris-Foulkes estimate   =   -7425.28774564 Ry
     estimated scf accuracy    <       0.00359546 Ry

     iteration # 13     ecut=    50.00 Ry     beta=0.70
     Davidson diagonalization with overlap
     ethr =  3.39E-07,  avg # of iterations =  4.7

     negative rho (up, down):  1.974E+00 0.000E+00

     total cpu time spent up to now is     5425.9 secs

     total energy              =   -7425.28674938 Ry
     Harris-Foulkes estimate   =   -7425.28808836 Ry
     estimated scf accuracy    <       0.00676577 Ry

     iteration # 14     ecut=    50.00 Ry     beta=0.70
     Davidson diagonalization with overlap
     ethr =  3.39E-07,  avg # of iterations =  3.0

     negative rho (up, down):  1.974E+00 0.000E+00

     total cpu time spent up to now is     5691.3 secs

     total energy              =   -7425.28737397 Ry
     Harris-Foulkes estimate   =   -7425.28741013 Ry
     estimated scf accuracy    <       0.00010819 Ry

     iteration # 15     ecut=    50.00 Ry     beta=0.70
     Davidson diagonalization with overlap
     ethr =  1.35E-08,  avg # of iterations =  3.0

     negative rho (up, down):  1.973E+00 0.000E+00

     total cpu time spent up to now is     6006.5 secs

     total energy              =   -7425.28737501 Ry
     Harris-Foulkes estimate   =   -7425.28742431 Ry
     estimated scf accuracy    <       0.00031735 Ry

     iteration # 16     ecut=    50.00 Ry     beta=0.70
     Davidson diagonalization with overlap
     ethr =  1.35E-08,  avg # of iterations =  2.0

     negative rho (up, down):  1.973E+00 0.000E+00

     total cpu time spent up to now is     6245.3 secs

     total energy              =   -7425.28739413 Ry
     Harris-Foulkes estimate   =   -7425.28741647 Ry
     estimated scf accuracy    <       0.00012721 Ry

     iteration # 17     ecut=    50.00 Ry     beta=0.70
     Davidson diagonalization with overlap
     ethr =  1.35E-08,  avg # of iterations =  1.0

     negative rho (up, down):  1.973E+00 0.000E+00

     total cpu time spent up to now is     6469.4 secs

     total energy              =   -7425.28740369 Ry
     Harris-Foulkes estimate   =   -7425.28740623 Ry
     estimated scf accuracy    <       0.00000829 Ry

     iteration # 18     ecut=    50.00 Ry     beta=0.70
     Davidson diagonalization with overlap
     ethr =  1.04E-09,  avg # of iterations =  2.0

     negative rho (up, down):  1.974E+00 0.000E+00

     total cpu time spent up to now is     6726.9 secs

     total energy              =   -7425.28740471 Ry
     Harris-Foulkes estimate   =   -7425.28740588 Ry
     estimated scf accuracy    <       0.00000445 Ry

     iteration # 19     ecut=    50.00 Ry     beta=0.70
     Davidson diagonalization with overlap
     ethr =  5.56E-10,  avg # of iterations =  2.0

     negative rho (up, down):  1.974E+00 0.000E+00

     total cpu time spent up to now is     6972.0 secs

     total energy              =   -7425.28740511 Ry
     Harris-Foulkes estimate   =   -7425.28740545 Ry
     estimated scf accuracy    <       0.00000094 Ry

     iteration # 20     ecut=    50.00 Ry     beta=0.70
     Davidson diagonalization with overlap
     ethr =  1.17E-10,  avg # of iterations =  3.0

     negative rho (up, down):  1.974E+00 0.000E+00

     total cpu time spent up to now is     7253.9 secs

     total energy              =   -7425.28740511 Ry
     Harris-Foulkes estimate   =   -7425.28740543 Ry
     estimated scf accuracy    <       0.00000122 Ry

     iteration # 21     ecut=    50.00 Ry     beta=0.70
     Davidson diagonalization with overlap
     ethr =  1.17E-10,  avg # of iterations =  2.0

     negative rho (up, down):  1.974E+00 0.000E+00

     total cpu time spent up to now is     7503.5 secs

     total energy              =   -7425.28740521 Ry
     Harris-Foulkes estimate   =   -7425.28740532 Ry
     estimated scf accuracy    <       0.00000039 Ry

     iteration # 22     ecut=    50.00 Ry     beta=0.70
     Davidson diagonalization with overlap
     ethr =  4.85E-11,  avg # of iterations =  2.0

     negative rho (up, down):  1.974E+00 0.000E+00

     total cpu time spent up to now is     7761.6 secs

     total energy              =   -7425.28740523 Ry
     Harris-Foulkes estimate   =   -7425.28740528 Ry
     estimated scf accuracy    <       0.00000013 Ry

     iteration # 23     ecut=    50.00 Ry     beta=0.70
     Davidson diagonalization with overlap
     ethr =  1.60E-11,  avg # of iterations =  2.0

     negative rho (up, down):  1.974E+00 0.000E+00

     total cpu time spent up to now is     8005.4 secs

     total energy              =   -7425.28740523 Ry
     Harris-Foulkes estimate   =   -7425.28740525 Ry
     estimated scf accuracy    <       0.00000002 Ry

     iteration # 24     ecut=    50.00 Ry     beta=0.70
     Davidson diagonalization with overlap
     ethr =  2.95E-12,  avg # of iterations =  3.0

     negative rho (up, down):  1.974E+00 0.000E+00

     total cpu time spent up to now is     8369.8 secs

     total energy              =   -7425.28740522 Ry
     Harris-Foulkes estimate   =   -7425.28740526 Ry
     estimated scf accuracy    <       0.00000013 Ry

     iteration # 25     ecut=    50.00 Ry     beta=0.70
     Davidson diagonalization with overlap
     ethr =  2.95E-12,  avg # of iterations =  3.0

     negative rho (up, down):  1.974E+00 0.000E+00

     total cpu time spent up to now is     8681.9 secs

     total energy              =   -7425.28740523 Ry
     Harris-Foulkes estimate   =   -7425.28740524 Ry
     estimated scf accuracy    <       0.00000001 Ry

     iteration # 26     ecut=    50.00 Ry     beta=0.70
     Davidson diagonalization with overlap
     ethr =  1.29E-12,  avg # of iterations =  2.0

     negative rho (up, down):  1.974E+00 0.000E+00

     total cpu time spent up to now is     8936.3 secs

     total energy              =   -7425.28740523 Ry
     Harris-Foulkes estimate   =   -7425.28740523 Ry
     estimated scf accuracy    <       0.00000004 Ry

     iteration # 27     ecut=    50.00 Ry     beta=0.70
     Davidson diagonalization with overlap
     ethr =  1.29E-12,  avg # of iterations =  2.0

     negative rho (up, down):  1.974E+00 0.000E+00

     total cpu time spent up to now is     9170.9 secs

     End of self-consistent calculation

          k = 0.2500 0.2500 0.0833 (167653 PWs)   bands (ev):

   -19.6775  -7.5674  -6.8156  -6.2886  -6.2871  -5.8586  -5.4502  -5.3569
    -5.3561  -5.1606  -5.1604  -5.0449  -5.0420  -4.9638  -4.9422  -4.8686
    -4.7833  -4.7793  -4.7418  -4.7403  -4.5806  -4.5630  -4.5617  -4.5613
    -4.5543  -4.4994  -4.4991  -4.4880  -4.4869  -4.4498  -4.4407  -4.4374
    -4.3954  -4.3950  -4.3620  -4.3609  -4.3103  -4.3085  -4.2998  -4.2964
    -4.2910  -4.2787  -4.2778  -4.2405  -4.2192  -4.2186  -4.2114  -4.2110
    -4.1831  -4.1410  -4.1172  -4.1143  -4.1139  -4.1103  -4.1029  -4.0976
    -4.0968  -4.0962  -4.0348  -4.0323  -3.9982  -3.9815  -3.9719  -3.9463
    -3.9428  -3.9316  -3.9204  -3.9199  -3.9164  -3.9135  -3.8701  -3.8635
    -3.8526  -3.8506  -3.8250  -3.7459  -3.7436  -3.7395  -3.7293  -3.7008
    -3.6969  -3.6776  -3.6491  -3.6472  -3.6193  -3.6182  -3.5988  -3.5982
    -3.5867  -3.5843  -3.5292  -3.5287  -3.5113  -3.4943  -3.4840  -3.4825
    -3.4815  -3.4777  -3.4545  -3.4535  -3.4180  -3.4168  -3.3981  -3.3951
    -3.3639  -3.3616  -3.3453  -3.3164  -3.3158  -3.2799  -3.2785  -3.2433
    -3.2345  -3.2343  -3.2219  -3.2202  -3.2151  -3.2145  -3.1810  -3.1661
    -3.1270  -3.1261  -3.1176  -3.1094  -3.1079  -3.1062  -3.0836  -3.0826
    -3.0623  -3.0615  -3.0605  -3.0338  -3.0334  -3.0258  -3.0245  -3.0223
    -2.9868  -2.9842  -2.9487  -2.9471  -2.9462  -2.9443  -2.9430  -2.8633
    -2.8540  -2.8516  -2.8496  -2.8490  -2.8479  -2.8450  -2.8436  -2.8421
    -2.8415  -2.8324  -2.8244  -2.8111  -2.8078  -2.8053  -2.8038  -2.7901
    -2.7872  -2.7487  -2.7468  -2.7465  -2.7435  -2.7410  -2.7239  -2.7233
    -2.7172  -2.7153  -2.7114  -2.6579  -2.6533  -2.6489  -2.6473  -2.6451
    -2.6427  -2.6169  -2.5560  -2.5552  -2.5545  -2.5508  -2.5419  -2.5399
    -2.5351  -2.5241  -2.5230  -2.4941  -2.4861  -2.4815  -2.4780  -2.4765
    -2.4757  -2.4388  -2.4372  -2.4278  -2.4259  -2.4245  -2.4240  -2.3878
    -2.3705  -2.3647  -2.3080  -2.3070  -2.2989  -2.2884  -2.2855  -2.2820
    -2.2436  -2.2321  -2.2101  -2.2068  -2.1840  -2.1811  -2.1767  -2.1591
    -2.1561  -2.1466  -2.1333  -2.1091  -2.0927  -2.0877  -2.0738  -2.0730
    -2.0697  -2.0631  -2.0557  -2.0506  -2.0463  -2.0436  -2.0418  -2.0372
    -2.0369  -2.0311  -2.0270  -2.0153  -2.0070  -2.0048  -2.0013  -1.9963
    -1.9954  -1.9774  -1.9737  -1.9653  -1.9598  -1.9581  -1.9524  -1.9170
    -1.9004  -1.8827  -1.8780  -1.8461  -1.8292  -1.8283  -1.8178  -1.8098
    -1.7942  -1.7908  -1.7806  -1.7797  -1.7772  -1.7764  -1.7741  -1.7437
    -1.7418  -1.7404  -1.7091  -1.6959  -1.6875  -1.6579  -1.6449  -1.6084
    -1.6025  -1.5925  -1.5734  -1.5708  -1.5645  -1.5495  -1.5446  -1.5315
    -1.5293  -1.5256  -1.5251  -1.5236  -1.5230  -1.5200  -1.5107  -1.5012
    -1.4955  -1.4786  -1.4721  -1.4549  -1.4513  -1.4278  -1.4268  -1.4235
    -1.4221  -1.4188  -1.4097  -1.3972  -1.3893  -1.3794  -1.3709  -1.3584
    -1.3482  -1.3444  -1.3353  -1.3142  -1.3123  -1.3049  -1.2933  -1.2687
    -1.2645  -1.2597  -1.2579  -1.2515  -1.2435  -1.2302  -1.2283  -1.2191
    -1.2118  -1.2096  -1.1990  -1.1973  -1.1959  -1.1872  -1.1833  -1.1716
    -1.1695  -1.1630  -1.1618  -1.1506  -1.1469  -1.1409  -1.1304  -1.1016
    -1.0989  -1.0940  -1.0909  -1.0899  -1.0859  -1.0528  -1.0344  -1.0335
    -1.0327  -1.0325  -1.0279  -1.0237  -1.0138  -1.0085  -1.0013  -0.9732
    -0.9706  -0.9647  -0.9627  -0.9424  -0.9414  -0.9321  -0.9039  -0.8946
    -0.8693  -0.8667  -0.8393  -0.8387  -0.8366  -0.8352  -0.8329  -0.8283
    -0.8248  -0.8226  -0.8200  -0.8182  -0.7884  -0.7879  -0.7698  -0.7665
    -0.7655  -0.7639  -0.7606  -0.7444  -0.7408  -0.4716  -0.4565  -0.4006
    -0.3878  -0.3610  -0.1977  -0.1364  -0.1352  -0.0947   0.1826   0.1864
     0.5121   0.5206   0.6115   0.6126   0.6527   0.6570   0.7980   0.8039
     0.9197   0.9235   1.0148   1.6080   1.6252   1.6262   1.6647   1.6713
     1.7144   1.7252   1.7942   1.8003   2.0015   2.0042   2.2389   2.3156
     2.3241   2.3357   2.7112   2.7221   2.7866   2.7880   2.7967   2.7976
     2.9462   2.9474   2.9917   3.0919   3.0956   3.3223   3.3270   3.4569
     3.4806   3.4854   3.7544   3.7582   3.8610   3.8867   3.8880   3.9416
     3.9729   4.0746   4.0767   4.3071   4.3117   4.3989   4.4023   4.5164
     4.5252   4.5452   4.5582   4.6901   5.1223   5.3468   5.3603   5.4523
     5.4614   5.5353   5.6313   5.6392   5.6559   5.7041   5.7377   5.7504
     5.7560   5.8051   5.8063   5.8481   6.0278   6.0774   6.1085   6.1228
     6.1292   6.1392   6.1440   6.1491   6.1582   6.1669   6.1831   6.2245

          k = 0.2500 0.2500-0.2500 (167588 PWs)   bands (ev):

   -19.6775  -7.5674  -6.8156  -6.2886  -6.2871  -5.8586  -5.4502  -5.3569
    -5.3561  -5.1606  -5.1604  -5.0449  -5.0420  -4.9638  -4.9422  -4.8686
    -4.7833  -4.7793  -4.7418  -4.7403  -4.5806  -4.5630  -4.5617  -4.5613
    -4.5543  -4.4994  -4.4991  -4.4880  -4.4869  -4.4498  -4.4407  -4.4374
    -4.3954  -4.3950  -4.3620  -4.3609  -4.3103  -4.3085  -4.2998  -4.2964
    -4.2910  -4.2787  -4.2778  -4.2405  -4.2192  -4.2186  -4.2114  -4.2110
    -4.1831  -4.1410  -4.1172  -4.1143  -4.1139  -4.1103  -4.1029  -4.0976
    -4.0968  -4.0962  -4.0348  -4.0323  -3.9982  -3.9815  -3.9719  -3.9463
    -3.9428  -3.9316  -3.9204  -3.9199  -3.9164  -3.9135  -3.8701  -3.8635
    -3.8526  -3.8506  -3.8250  -3.7459  -3.7436  -3.7395  -3.7293  -3.7008
    -3.6969  -3.6776  -3.6491  -3.6472  -3.6193  -3.6182  -3.5988  -3.5982
    -3.5867  -3.5843  -3.5292  -3.5287  -3.5113  -3.4943  -3.4840  -3.4825
    -3.4815  -3.4777  -3.4545  -3.4535  -3.4180  -3.4167  -3.3981  -3.3951
    -3.3639  -3.3616  -3.3453  -3.3164  -3.3158  -3.2799  -3.2785  -3.2433
    -3.2345  -3.2343  -3.2219  -3.2202  -3.2151  -3.2145  -3.1810  -3.1661
    -3.1269  -3.1261  -3.1176  -3.1094  -3.1079  -3.1062  -3.0836  -3.0826
    -3.0623  -3.0615  -3.0605  -3.0338  -3.0334  -3.0257  -3.0245  -3.0223
    -2.9868  -2.9842  -2.9487  -2.9471  -2.9462  -2.9443  -2.9430  -2.8633
    -2.8540  -2.8516  -2.8497  -2.8490  -2.8479  -2.8450  -2.8436  -2.8421
    -2.8415  -2.8324  -2.8244  -2.8111  -2.8078  -2.8053  -2.8037  -2.7901
    -2.7872  -2.7487  -2.7468  -2.7465  -2.7435  -2.7410  -2.7239  -2.7233
    -2.7172  -2.7153  -2.7114  -2.6579  -2.6533  -2.6489  -2.6473  -2.6451
    -2.6427  -2.6169  -2.5560  -2.5552  -2.5545  -2.5508  -2.5419  -2.5399
    -2.5351  -2.5241  -2.5230  -2.4941  -2.4861  -2.4815  -2.4779  -2.4765
    -2.4757  -2.4388  -2.4372  -2.4278  -2.4259  -2.4245  -2.4240  -2.3878
    -2.3705  -2.3647  -2.3080  -2.3070  -2.2990  -2.2884  -2.2855  -2.2820
    -2.2436  -2.2321  -2.2101  -2.2068  -2.1840  -2.1811  -2.1767  -2.1591
    -2.1561  -2.1466  -2.1333  -2.1091  -2.0927  -2.0877  -2.0738  -2.0730
    -2.0697  -2.0631  -2.0557  -2.0506  -2.0463  -2.0436  -2.0418  -2.0373
    -2.0369  -2.0311  -2.0270  -2.0153  -2.0070  -2.0048  -2.0013  -1.9963
    -1.9954  -1.9774  -1.9737  -1.9653  -1.9598  -1.9581  -1.9524  -1.9171
    -1.9004  -1.8827  -1.8780  -1.8461  -1.8292  -1.8283  -1.8178  -1.8098
    -1.7941  -1.7908  -1.7806  -1.7797  -1.7772  -1.7764  -1.7741  -1.7437
    -1.7418  -1.7404  -1.7091  -1.6959  -1.6875  -1.6579  -1.6449  -1.6084
    -1.6025  -1.5925  -1.5734  -1.5708  -1.5645  -1.5495  -1.5446  -1.5315
    -1.5293  -1.5256  -1.5251  -1.5236  -1.5230  -1.5200  -1.5107  -1.5012
    -1.4955  -1.4786  -1.4721  -1.4549  -1.4513  -1.4278  -1.4268  -1.4235
    -1.4221  -1.4188  -1.4097  -1.3972  -1.3893  -1.3794  -1.3709  -1.3584
    -1.3482  -1.3444  -1.3353  -1.3142  -1.3123  -1.3049  -1.2933  -1.2687
    -1.2645  -1.2597  -1.2579  -1.2515  -1.2435  -1.2302  -1.2283  -1.2191
    -1.2118  -1.2096  -1.1990  -1.1973  -1.1959  -1.1872  -1.1833  -1.1716
    -1.1695  -1.1630  -1.1618  -1.1506  -1.1469  -1.1409  -1.1304  -1.1016
    -1.0989  -1.0940  -1.0909  -1.0899  -1.0859  -1.0528  -1.0344  -1.0334
    -1.0327  -1.0325  -1.0279  -1.0237  -1.0138  -1.0085  -1.0013  -0.9732
    -0.9706  -0.9647  -0.9627  -0.9424  -0.9414  -0.9321  -0.9039  -0.8946
    -0.8693  -0.8667  -0.8393  -0.8387  -0.8366  -0.8352  -0.8329  -0.8283
    -0.8248  -0.8226  -0.8200  -0.8182  -0.7884  -0.7879  -0.7698  -0.7665
    -0.7655  -0.7639  -0.7606  -0.7444  -0.7408  -0.4716  -0.4565  -0.4006
    -0.3878  -0.3610  -0.1977  -0.1364  -0.1352  -0.0947   0.1826   0.1864
     0.5121   0.5206   0.6115   0.6126   0.6527   0.6570   0.7980   0.8039
     0.9197   0.9236   1.0148   1.6080   1.6252   1.6262   1.6647   1.6713
     1.7145   1.7252   1.7942   1.8003   2.0015   2.0042   2.2389   2.3156
     2.3241   2.3357   2.7112   2.7221   2.7866   2.7880   2.7967   2.7976
     2.9462   2.9474   2.9917   3.0919   3.0956   3.3223   3.3270   3.4569
     3.4806   3.4854   3.7544   3.7582   3.8610   3.8867   3.8880   3.9416
     3.9729   4.0746   4.0767   4.3071   4.3117   4.3989   4.4023   4.5164
     4.5252   4.5452   4.5582   4.6902   5.1152   5.3433   5.3561   5.4518
     5.4613   5.5277   5.6316   5.6392   5.6844   5.7178   5.7460   5.7513
     5.7592   5.8054   5.8066   5.8492   6.0374   6.0775   6.1030   6.1173
     6.1293   6.1403   6.1476   6.1571   6.1585   6.1705   6.2133   6.2356

          k =-0.2500-0.2500 0.0833 (167653 PWs)   bands (ev):

   -19.6775  -7.5674  -6.8156  -6.2886  -6.2871  -5.8586  -5.4502  -5.3569
    -5.3561  -5.1606  -5.1604  -5.0449  -5.0420  -4.9638  -4.9422  -4.8686
    -4.7833  -4.7793  -4.7418  -4.7403  -4.5806  -4.5630  -4.5617  -4.5613
    -4.5543  -4.4994  -4.4991  -4.4880  -4.4869  -4.4498  -4.4407  -4.4374
    -4.3954  -4.3950  -4.3620  -4.3609  -4.3103  -4.3085  -4.2998  -4.2964
    -4.2910  -4.2787  -4.2778  -4.2405  -4.2192  -4.2186  -4.2114  -4.2110
    -4.1831  -4.1410  -4.1172  -4.1143  -4.1139  -4.1103  -4.1029  -4.0976
    -4.0968  -4.0962  -4.0348  -4.0323  -3.9982  -3.9815  -3.9719  -3.9463
    -3.9428  -3.9316  -3.9204  -3.9199  -3.9164  -3.9135  -3.8701  -3.8635
    -3.8526  -3.8506  -3.8250  -3.7459  -3.7436  -3.7395  -3.7293  -3.7008
    -3.6969  -3.6776  -3.6491  -3.6472  -3.6193  -3.6182  -3.5988  -3.5982
    -3.5867  -3.5843  -3.5292  -3.5287  -3.5113  -3.4943  -3.4840  -3.4825
    -3.4815  -3.4777  -3.4545  -3.4535  -3.4180  -3.4168  -3.3981  -3.3951
    -3.3639  -3.3616  -3.3453  -3.3164  -3.3158  -3.2799  -3.2785  -3.2433
    -3.2345  -3.2343  -3.2219  -3.2202  -3.2151  -3.2145  -3.1810  -3.1661
    -3.1270  -3.1261  -3.1176  -3.1094  -3.1079  -3.1062  -3.0836  -3.0826
    -3.0623  -3.0615  -3.0605  -3.0338  -3.0334  -3.0258  -3.0245  -3.0223
    -2.9868  -2.9842  -2.9487  -2.9471  -2.9462  -2.9443  -2.9430  -2.8633
    -2.8540  -2.8516  -2.8496  -2.8490  -2.8479  -2.8450  -2.8436  -2.8421
    -2.8415  -2.8324  -2.8244  -2.8111  -2.8078  -2.8053  -2.8038  -2.7901
    -2.7872  -2.7487  -2.7468  -2.7465  -2.7435  -2.7410  -2.7239  -2.7233
    -2.7172  -2.7153  -2.7114  -2.6579  -2.6533  -2.6489  -2.6473  -2.6451
    -2.6427  -2.6169  -2.5560  -2.5552  -2.5545  -2.5508  -2.5419  -2.5399
    -2.5351  -2.5241  -2.5230  -2.4941  -2.4861  -2.4815  -2.4780  -2.4765
    -2.4757  -2.4388  -2.4372  -2.4278  -2.4259  -2.4245  -2.4240  -2.3878
    -2.3705  -2.3647  -2.3080  -2.3070  -2.2989  -2.2884  -2.2855  -2.2820
    -2.2436  -2.2321  -2.2101  -2.2068  -2.1840  -2.1811  -2.1767  -2.1591
    -2.1561  -2.1466  -2.1333  -2.1091  -2.0927  -2.0877  -2.0738  -2.0730
    -2.0697  -2.0631  -2.0557  -2.0506  -2.0463  -2.0436  -2.0418  -2.0372
    -2.0369  -2.0311  -2.0270  -2.0153  -2.0070  -2.0048  -2.0013  -1.9963
    -1.9954  -1.9774  -1.9737  -1.9653  -1.9598  -1.9581  -1.9524  -1.9170
    -1.9004  -1.8827  -1.8780  -1.8461  -1.8292  -1.8283  -1.8178  -1.8098
    -1.7942  -1.7908  -1.7806  -1.7797  -1.7772  -1.7764  -1.7741  -1.7437
    -1.7418  -1.7404  -1.7091  -1.6959  -1.6875  -1.6579  -1.6449  -1.6084
    -1.6025  -1.5925  -1.5734  -1.5708  -1.5645  -1.5495  -1.5446  -1.5315
    -1.5293  -1.5256  -1.5251  -1.5236  -1.5230  -1.5200  -1.5107  -1.5012
    -1.4955  -1.4786  -1.4721  -1.4549  -1.4513  -1.4278  -1.4268  -1.4235
    -1.4221  -1.4188  -1.4097  -1.3972  -1.3893  -1.3794  -1.3709  -1.3584
    -1.3482  -1.3444  -1.3353  -1.3142  -1.3123  -1.3049  -1.2933  -1.2687
    -1.2645  -1.2597  -1.2579  -1.2515  -1.2435  -1.2302  -1.2283  -1.2191
    -1.2118  -1.2096  -1.1990  -1.1973  -1.1959  -1.1872  -1.1833  -1.1716
    -1.1695  -1.1630  -1.1618  -1.1506  -1.1469  -1.1409  -1.1304  -1.1016
    -1.0989  -1.0940  -1.0909  -1.0899  -1.0859  -1.0528  -1.0344  -1.0335
    -1.0327  -1.0325  -1.0279  -1.0237  -1.0138  -1.0085  -1.0013  -0.9732
    -0.9706  -0.9647  -0.9627  -0.9424  -0.9414  -0.9321  -0.9039  -0.8946
    -0.8693  -0.8667  -0.8393  -0.8387  -0.8366  -0.8352  -0.8329  -0.8283
    -0.8248  -0.8226  -0.8200  -0.8182  -0.7884  -0.7879  -0.7698  -0.7665
    -0.7655  -0.7639  -0.7606  -0.7444  -0.7408  -0.4716  -0.4565  -0.4006
    -0.3878  -0.3610  -0.1977  -0.1364  -0.1352  -0.0947   0.1826   0.1864
     0.5121   0.5206   0.6115   0.6126   0.6527   0.6570   0.7980   0.8039
     0.9197   0.9235   1.0148   1.6080   1.6252   1.6262   1.6647   1.6713
     1.7144   1.7252   1.7942   1.8003   2.0015   2.0042   2.2389   2.3156
     2.3241   2.3357   2.7112   2.7221   2.7866   2.7880   2.7967   2.7976
     2.9462   2.9474   2.9917   3.0919   3.0956   3.3223   3.3270   3.4569
     3.4806   3.4854   3.7544   3.7582   3.8610   3.8867   3.8880   3.9416
     3.9729   4.0746   4.0767   4.3071   4.3117   4.3989   4.4023   4.5164
     4.5252   4.5452   4.5582   4.6901   5.1221   5.3467   5.3612   5.4523
     5.4614   5.5331   5.6314   5.6388   5.6582   5.7047   5.7374   5.7504
     5.7562   5.8051   5.8063   5.8480   6.0286   6.0775   6.1082   6.1220
     6.1304   6.1386   6.1441   6.1493   6.1582   6.1679   6.1783   6.2221

          k =-0.2500 0.2500-0.0833 (167653 PWs)   bands (ev):

   -19.6775  -7.5674  -6.8157  -6.2893  -6.2863  -5.8587  -5.4501  -5.3584
    -5.3546  -5.1609  -5.1600  -5.0459  -5.0413  -4.9639  -4.9419  -4.8683
    -4.7831  -4.7797  -4.7426  -4.7404  -4.5804  -4.5636  -4.5629  -4.5599
    -4.5542  -4.4993  -4.4991  -4.4890  -4.4854  -4.4498  -4.4412  -4.4360
    -4.3956  -4.3948  -4.3624  -4.3604  -4.3127  -4.3070  -4.2993  -4.2966
    -4.2908  -4.2785  -4.2777  -4.2386  -4.2200  -4.2181  -4.2119  -4.2105
    -4.1810  -4.1388  -4.1241  -4.1154  -4.1126  -4.1105  -4.1031  -4.0976
    -4.0969  -4.0959  -4.0385  -4.0313  -3.9911  -3.9808  -3.9712  -3.9549
    -3.9432  -3.9358  -3.9206  -3.9196  -3.9161  -3.9133  -3.8666  -3.8635
    -3.8526  -3.8497  -3.8215  -3.7467  -3.7434  -3.7395  -3.7301  -3.7012
    -3.6976  -3.6775  -3.6492  -3.6452  -3.6206  -3.6173  -3.5989  -3.5964
    -3.5874  -3.5827  -3.5299  -3.5281  -3.5129  -3.4939  -3.4851  -3.4832
    -3.4812  -3.4779  -3.4548  -3.4510  -3.4181  -3.4159  -3.3992  -3.3939
    -3.3648  -3.3608  -3.3454  -3.3173  -3.3157  -3.2806  -3.2775  -3.2435
    -3.2344  -3.2343  -3.2222  -3.2201  -3.2156  -3.2144  -3.1811  -3.1660
    -3.1272  -3.1265  -3.1175  -3.1098  -3.1072  -3.1064  -3.0832  -3.0824
    -3.0644  -3.0616  -3.0584  -3.0338  -3.0325  -3.0261  -3.0250  -3.0220
    -2.9868  -2.9848  -2.9493  -2.9475  -2.9461  -2.9446  -2.9429  -2.8632
    -2.8545  -2.8538  -2.8501  -2.8476  -2.8472  -2.8458  -2.8424  -2.8421
    -2.8413  -2.8323  -2.8243  -2.8108  -2.8074  -2.8055  -2.8038  -2.7898
    -2.7871  -2.7490  -2.7474  -2.7460  -2.7447  -2.7401  -2.7249  -2.7221
    -2.7172  -2.7150  -2.7115  -2.6578  -2.6537  -2.6491  -2.6475  -2.6445
    -2.6425  -2.6173  -2.5561  -2.5550  -2.5537  -2.5508  -2.5420  -2.5397
    -2.5346  -2.5250  -2.5224  -2.4930  -2.4855  -2.4817  -2.4809  -2.4752
    -2.4743  -2.4385  -2.4361  -2.4288  -2.4259  -2.4248  -2.4229  -2.3888
    -2.3714  -2.3651  -2.3099  -2.3061  -2.2967  -2.2898  -2.2852  -2.2818
    -2.2432  -2.2328  -2.2096  -2.2081  -2.1832  -2.1804  -2.1770  -2.1591
    -2.1566  -2.1465  -2.1344  -2.1079  -2.0976  -2.0861  -2.0752  -2.0727
    -2.0691  -2.0629  -2.0579  -2.0508  -2.0473  -2.0430  -2.0418  -2.0383
    -2.0349  -2.0305  -2.0261  -2.0146  -2.0075  -2.0054  -2.0011  -1.9968
    -1.9948  -1.9773  -1.9731  -1.9632  -1.9603  -1.9590  -1.9534  -1.9176
    -1.9041  -1.8826  -1.8796  -1.8460  -1.8305  -1.8273  -1.8173  -1.8084
    -1.7950  -1.7890  -1.7812  -1.7789  -1.7771  -1.7762  -1.7734  -1.7440
    -1.7412  -1.7403  -1.7033  -1.6970  -1.6892  -1.6583  -1.6434  -1.6087
    -1.6027  -1.5927  -1.5728  -1.5707  -1.5643  -1.5498  -1.5442  -1.5334
    -1.5295  -1.5271  -1.5240  -1.5236  -1.5222  -1.5202  -1.5126  -1.5011
    -1.4946  -1.4778  -1.4723  -1.4545  -1.4491  -1.4291  -1.4262  -1.4250
    -1.4221  -1.4180  -1.4105  -1.3970  -1.3866  -1.3805  -1.3706  -1.3585
    -1.3490  -1.3443  -1.3352  -1.3138  -1.3114  -1.3052  -1.2940  -1.2719
    -1.2626  -1.2591  -1.2559  -1.2517  -1.2448  -1.2316  -1.2277  -1.2182
    -1.2132  -1.2085  -1.2008  -1.1968  -1.1949  -1.1873  -1.1831  -1.1710
    -1.1673  -1.1634  -1.1615  -1.1503  -1.1490  -1.1413  -1.1311  -1.0998
    -1.0973  -1.0957  -1.0921  -1.0896  -1.0866  -1.0525  -1.0371  -1.0331
    -1.0321  -1.0310  -1.0277  -1.0237  -1.0153  -1.0082  -0.9995  -0.9746
    -0.9686  -0.9643  -0.9625  -0.9428  -0.9413  -0.9318  -0.9029  -0.8946
    -0.8700  -0.8657  -0.8400  -0.8393  -0.8360  -0.8350  -0.8329  -0.8285
    -0.8250  -0.8224  -0.8214  -0.8175  -0.7895  -0.7866  -0.7713  -0.7670
    -0.7649  -0.7633  -0.7625  -0.7450  -0.7365  -0.4720  -0.4565  -0.4045
    -0.3829  -0.3615  -0.1995  -0.1388  -0.1336  -0.0959   0.1807   0.1897
     0.5076   0.5241   0.6091   0.6146   0.6483   0.6588   0.7921   0.8104
     0.9199   0.9239   1.0161   1.6083   1.6253   1.6285   1.6662   1.6711
     1.7041   1.7339   1.7903   1.8068   1.9973   2.0074   2.2402   2.3097
     2.3286   2.3356   2.7031   2.7269   2.7858   2.7898   2.7949   2.8003
     2.9445   2.9490   2.9879   3.0825   3.1056   3.3218   3.3265   3.4561
     3.4766   3.4905   3.7462   3.7638   3.8713   3.8862   3.8907   3.9322
     3.9745   4.0668   4.0806   4.3037   4.3137   4.3984   4.4065   4.5226
     4.5281   4.5388   4.5633   4.6929   5.1237   5.3352   5.3677   5.4481
     5.4605   5.5422   5.6223   5.6431   5.6633   5.7089   5.7219   5.7502
     5.7585   5.7886   5.8100   5.8480   6.0213   6.0900   6.1041   6.1179
     6.1298   6.1351   6.1431   6.1530   6.1582   6.1712   6.1860   6.2126

          k = 0.2500-0.2500-0.0833 (167653 PWs)   bands (ev):

   -19.6775  -7.5674  -6.8157  -6.2893  -6.2863  -5.8587  -5.4501  -5.3584
    -5.3546  -5.1609  -5.1600  -5.0459  -5.0413  -4.9639  -4.9419  -4.8683
    -4.7831  -4.7797  -4.7426  -4.7404  -4.5804  -4.5636  -4.5629  -4.5599
    -4.5542  -4.4993  -4.4991  -4.4890  -4.4854  -4.4498  -4.4412  -4.4360
    -4.3956  -4.3948  -4.3624  -4.3604  -4.3127  -4.3070  -4.2993  -4.2966
    -4.2908  -4.2785  -4.2777  -4.2386  -4.2200  -4.2181  -4.2119  -4.2105
    -4.1810  -4.1388  -4.1241  -4.1154  -4.1126  -4.1105  -4.1031  -4.0976
    -4.0969  -4.0959  -4.0385  -4.0313  -3.9911  -3.9808  -3.9712  -3.9549
    -3.9432  -3.9358  -3.9206  -3.9196  -3.9161  -3.9133  -3.8666  -3.8635
    -3.8526  -3.8497  -3.8215  -3.7467  -3.7434  -3.7395  -3.7301  -3.7012
    -3.6976  -3.6775  -3.6492  -3.6452  -3.6206  -3.6173  -3.5989  -3.5964
    -3.5874  -3.5827  -3.5299  -3.5281  -3.5129  -3.4939  -3.4851  -3.4832
    -3.4812  -3.4779  -3.4548  -3.4510  -3.4181  -3.4159  -3.3992  -3.3939
    -3.3648  -3.3608  -3.3454  -3.3173  -3.3157  -3.2806  -3.2775  -3.2435
    -3.2344  -3.2343  -3.2222  -3.2201  -3.2156  -3.2144  -3.1811  -3.1660
    -3.1272  -3.1265  -3.1175  -3.1098  -3.1072  -3.1064  -3.0832  -3.0824
    -3.0644  -3.0616  -3.0584  -3.0338  -3.0325  -3.0261  -3.0250  -3.0220
    -2.9868  -2.9848  -2.9493  -2.9475  -2.9461  -2.9446  -2.9429  -2.8632
    -2.8545  -2.8538  -2.8501  -2.8476  -2.8472  -2.8458  -2.8424  -2.8421
    -2.8413  -2.8323  -2.8243  -2.8108  -2.8074  -2.8055  -2.8038  -2.7898
    -2.7871  -2.7490  -2.7474  -2.7460  -2.7447  -2.7401  -2.7249  -2.7221
    -2.7172  -2.7150  -2.7115  -2.6578  -2.6537  -2.6491  -2.6475  -2.6445
    -2.6425  -2.6173  -2.5561  -2.5550  -2.5537  -2.5508  -2.5420  -2.5397
    -2.5346  -2.5250  -2.5224  -2.4930  -2.4855  -2.4817  -2.4809  -2.4752
    -2.4743  -2.4385  -2.4361  -2.4288  -2.4259  -2.4248  -2.4229  -2.3888
    -2.3714  -2.3651  -2.3099  -2.3061  -2.2967  -2.2898  -2.2852  -2.2818
    -2.2432  -2.2328  -2.2096  -2.2081  -2.1832  -2.1804  -2.1770  -2.1591
    -2.1566  -2.1465  -2.1344  -2.1079  -2.0976  -2.0861  -2.0752  -2.0727
    -2.0691  -2.0629  -2.0579  -2.0508  -2.0473  -2.0430  -2.0418  -2.0383
    -2.0349  -2.0305  -2.0261  -2.0146  -2.0075  -2.0054  -2.0011  -1.9968
    -1.9948  -1.9773  -1.9731  -1.9632  -1.9603  -1.9590  -1.9534  -1.9176
    -1.9041  -1.8826  -1.8796  -1.8460  -1.8305  -1.8273  -1.8173  -1.8084
    -1.7950  -1.7890  -1.7812  -1.7789  -1.7771  -1.7762  -1.7734  -1.7440
    -1.7412  -1.7403  -1.7033  -1.6970  -1.6892  -1.6583  -1.6434  -1.6087
    -1.6027  -1.5927  -1.5728  -1.5707  -1.5643  -1.5498  -1.5442  -1.5334
    -1.5295  -1.5271  -1.5240  -1.5236  -1.5222  -1.5202  -1.5126  -1.5011
    -1.4946  -1.4778  -1.4723  -1.4545  -1.4491  -1.4291  -1.4262  -1.4250
    -1.4221  -1.4180  -1.4105  -1.3970  -1.3866  -1.3805  -1.3706  -1.3585
    -1.3490  -1.3443  -1.3352  -1.3138  -1.3114  -1.3052  -1.2940  -1.2719
    -1.2626  -1.2591  -1.2559  -1.2517  -1.2448  -1.2316  -1.2277  -1.2182
    -1.2132  -1.2085  -1.2008  -1.1968  -1.1949  -1.1873  -1.1831  -1.1710
    -1.1673  -1.1634  -1.1615  -1.1503  -1.1490  -1.1413  -1.1311  -1.0998
    -1.0973  -1.0957  -1.0921  -1.0896  -1.0866  -1.0525  -1.0371  -1.0331
    -1.0321  -1.0310  -1.0277  -1.0237  -1.0153  -1.0082  -0.9995  -0.9746
    -0.9686  -0.9643  -0.9625  -0.9428  -0.9413  -0.9318  -0.9029  -0.8946
    -0.8700  -0.8657  -0.8400  -0.8393  -0.8360  -0.8350  -0.8329  -0.8285
    -0.8250  -0.8224  -0.8214  -0.8175  -0.7895  -0.7866  -0.7713  -0.7670
    -0.7649  -0.7633  -0.7625  -0.7450  -0.7365  -0.4720  -0.4565  -0.4045
    -0.3829  -0.3615  -0.1995  -0.1388  -0.1336  -0.0959   0.1807   0.1897
     0.5076   0.5241   0.6091   0.6146   0.6483   0.6588   0.7921   0.8104
     0.9199   0.9239   1.0160   1.6083   1.6253   1.6285   1.6662   1.6711
     1.7041   1.7339   1.7903   1.8068   1.9973   2.0074   2.2402   2.3097
     2.3286   2.3356   2.7031   2.7269   2.7858   2.7898   2.7949   2.8003
     2.9445   2.9490   2.9879   3.0825   3.1056   3.3218   3.3265   3.4561
     3.4766   3.4905   3.7462   3.7638   3.8713   3.8862   3.8907   3.9322
     3.9745   4.0668   4.0806   4.3037   4.3137   4.3984   4.4065   4.5226
     4.5281   4.5388   4.5633   4.6929   5.1239   5.3353   5.3672   5.4480
     5.4604   5.5437   5.6225   5.6434   5.6623   5.7078   5.7215   5.7501
     5.7584   5.7885   5.8100   5.8481   6.0195   6.0885   6.1034   6.1202
     6.1292   6.1356   6.1436   6.1529   6.1582   6.1689   6.1924   6.2192

          k =-0.2500 0.2500 0.2500 (167588 PWs)   bands (ev):

   -19.6775  -7.5673  -6.8157  -6.2893  -6.2863  -5.8587  -5.4501  -5.3584
    -5.3546  -5.1609  -5.1600  -5.0459  -5.0413  -4.9639  -4.9419  -4.8683
    -4.7831  -4.7797  -4.7426  -4.7403  -4.5804  -4.5636  -4.5629  -4.5599
    -4.5542  -4.4993  -4.4991  -4.4890  -4.4854  -4.4498  -4.4412  -4.4360
    -4.3956  -4.3948  -4.3624  -4.3604  -4.3127  -4.3070  -4.2993  -4.2966
    -4.2909  -4.2785  -4.2777  -4.2386  -4.2200  -4.2181  -4.2119  -4.2105
    -4.1810  -4.1388  -4.1241  -4.1154  -4.1126  -4.1105  -4.1031  -4.0976
    -4.0969  -4.0959  -4.0385  -4.0313  -3.9911  -3.9808  -3.9712  -3.9549
    -3.9432  -3.9358  -3.9206  -3.9196  -3.9161  -3.9133  -3.8666  -3.8635
    -3.8526  -3.8497  -3.8215  -3.7467  -3.7434  -3.7395  -3.7301  -3.7012
    -3.6976  -3.6775  -3.6492  -3.6452  -3.6206  -3.6173  -3.5989  -3.5964
    -3.5874  -3.5827  -3.5299  -3.5281  -3.5129  -3.4939  -3.4851  -3.4832
    -3.4812  -3.4779  -3.4548  -3.4510  -3.4181  -3.4159  -3.3992  -3.3939
    -3.3648  -3.3608  -3.3454  -3.3173  -3.3157  -3.2806  -3.2774  -3.2435
    -3.2344  -3.2343  -3.2222  -3.2201  -3.2156  -3.2144  -3.1811  -3.1660
    -3.1272  -3.1265  -3.1175  -3.1098  -3.1072  -3.1064  -3.0832  -3.0824
    -3.0644  -3.0616  -3.0584  -3.0338  -3.0325  -3.0261  -3.0250  -3.0220
    -2.9868  -2.9848  -2.9493  -2.9475  -2.9461  -2.9446  -2.9429  -2.8632
    -2.8545  -2.8538  -2.8501  -2.8476  -2.8472  -2.8458  -2.8424  -2.8420
    -2.8413  -2.8323  -2.8243  -2.8108  -2.8074  -2.8055  -2.8038  -2.7898
    -2.7871  -2.7490  -2.7474  -2.7460  -2.7447  -2.7401  -2.7249  -2.7221
    -2.7172  -2.7150  -2.7115  -2.6578  -2.6537  -2.6491  -2.6475  -2.6445
    -2.6425  -2.6173  -2.5561  -2.5550  -2.5537  -2.5508  -2.5420  -2.5397
    -2.5346  -2.5250  -2.5224  -2.4930  -2.4855  -2.4817  -2.4809  -2.4752
    -2.4743  -2.4385  -2.4361  -2.4288  -2.4259  -2.4248  -2.4229  -2.3888
    -2.3714  -2.3651  -2.3099  -2.3061  -2.2967  -2.2898  -2.2852  -2.2818
    -2.2432  -2.2328  -2.2096  -2.2081  -2.1832  -2.1804  -2.1770  -2.1591
    -2.1566  -2.1465  -2.1344  -2.1079  -2.0976  -2.0861  -2.0752  -2.0727
    -2.0691  -2.0629  -2.0579  -2.0508  -2.0473  -2.0430  -2.0418  -2.0384
    -2.0349  -2.0305  -2.0261  -2.0146  -2.0075  -2.0054  -2.0011  -1.9968
    -1.9948  -1.9773  -1.9731  -1.9632  -1.9603  -1.9590  -1.9534  -1.9176
    -1.9041  -1.8826  -1.8796  -1.8460  -1.8305  -1.8273  -1.8173  -1.8084
    -1.7950  -1.7890  -1.7812  -1.7789  -1.7771  -1.7762  -1.7734  -1.7440
    -1.7412  -1.7403  -1.7033  -1.6970  -1.6892  -1.6583  -1.6434  -1.6087
    -1.6027  -1.5928  -1.5728  -1.5707  -1.5643  -1.5498  -1.5442  -1.5334
    -1.5295  -1.5271  -1.5240  -1.5236  -1.5222  -1.5202  -1.5126  -1.5011
    -1.4946  -1.4778  -1.4723  -1.4545  -1.4491  -1.4291  -1.4262  -1.4250
    -1.4221  -1.4180  -1.4105  -1.3970  -1.3866  -1.3805  -1.3706  -1.3585
    -1.3490  -1.3443  -1.3352  -1.3138  -1.3114  -1.3052  -1.2940  -1.2719
    -1.2626  -1.2591  -1.2559  -1.2517  -1.2448  -1.2316  -1.2277  -1.2182
    -1.2132  -1.2085  -1.2008  -1.1968  -1.1949  -1.1873  -1.1831  -1.1710
    -1.1673  -1.1634  -1.1615  -1.1503  -1.1490  -1.1413  -1.1311  -1.0998
    -1.0973  -1.0957  -1.0921  -1.0897  -1.0866  -1.0525  -1.0371  -1.0331
    -1.0321  -1.0310  -1.0277  -1.0237  -1.0153  -1.0082  -0.9995  -0.9745
    -0.9686  -0.9643  -0.9625  -0.9428  -0.9413  -0.9318  -0.9029  -0.8946
    -0.8700  -0.8657  -0.8400  -0.8393  -0.8360  -0.8350  -0.8329  -0.8285
    -0.8250  -0.8225  -0.8214  -0.8175  -0.7895  -0.7866  -0.7713  -0.7670
    -0.7649  -0.7633  -0.7625  -0.7450  -0.7365  -0.4720  -0.4565  -0.4045
    -0.3829  -0.3615  -0.1995  -0.1388  -0.1336  -0.0959   0.1807   0.1897
     0.5076   0.5241   0.6091   0.6146   0.6483   0.6588   0.7921   0.8104
     0.9199   0.9239   1.0160   1.6083   1.6253   1.6285   1.6662   1.6711
     1.7041   1.7339   1.7903   1.8068   1.9973   2.0074   2.2402   2.3097
     2.3286   2.3356   2.7031   2.7269   2.7858   2.7898   2.7949   2.8003
     2.9445   2.9490   2.9879   3.0825   3.1056   3.3218   3.3265   3.4561
     3.4766   3.4905   3.7462   3.7638   3.8713   3.8862   3.8907   3.9322
     3.9746   4.0668   4.0806   4.3037   4.3137   4.3984   4.4065   4.5226
     4.5281   4.5388   4.5633   4.6930   5.1167   5.3334   5.3611   5.4477
     5.4602   5.5393   5.6227   5.6432   5.6840   5.7032   5.7487   5.7525
     5.7659   5.7887   5.8103   5.8483   6.0331   6.0870   6.1005   6.1073
     6.1310   6.1372   6.1510   6.1578   6.1595   6.1795   6.2020   6.2442

     the Fermi energy is     0.8733 ev

!    total energy              =   -7425.28740522 Ry
     Harris-Foulkes estimate   =   -7425.28740523 Ry
     estimated scf accuracy    <          1.4E-09 Ry

     The total energy is the sum of the following terms:

     one-electron contribution =  -48888.38573933 Ry
     hartree contribution      =   24995.12370043 Ry
     xc contribution           =   -3604.24856127 Ry
     ewald contribution        =   20072.22583925 Ry
     smearing contrib. (-TS)   =      -0.00264431 Ry

     convergence has been achieved in  27 iterations

     Writing output data file 7679239.save

     init_run     :    130.03s CPU    137.32s WALL (       1 calls)
     electrons    :   8593.22s CPU   9031.81s WALL (       1 calls)

     Called by init_run:
     wfcinit      :    103.53s CPU    110.11s WALL (       1 calls)
     potinit      :      7.71s CPU      8.07s WALL (       1 calls)

     Called by electrons:
     c_bands      :   7375.75s CPU   7718.87s WALL (      28 calls)
     sum_band     :    900.39s CPU    979.74s WALL (      28 calls)
     v_of_rho     :     67.00s CPU     77.64s WALL (      28 calls)
     newd         :    260.22s CPU    264.93s WALL (      28 calls)
     mix_rho      :      2.04s CPU      2.45s WALL (      28 calls)
     vdW_energy   :      9.14s CPU      9.73s WALL (      28 calls)
     vdW_ffts     :     26.88s CPU     31.94s WALL (      56 calls)
     vdW_v        :      9.69s CPU     10.59s WALL (      28 calls)

     Called by c_bands:
     init_us_2    :     10.73s CPU     11.22s WALL (     342 calls)
     cegterg      :   7242.40s CPU   7584.03s WALL (     168 calls)

     Called by *egterg:
     h_psi        :   2629.21s CPU   2940.44s WALL (     837 calls)
     s_psi        :    627.03s CPU    629.38s WALL (     837 calls)
     g_psi        :      6.27s CPU      6.28s WALL (     663 calls)
     cdiaghg      :   2238.66s CPU   2245.66s WALL (     825 calls)

     Called by h_psi:
     add_vuspsi   :    627.68s CPU    630.21s WALL (     837 calls)

     General routines
     calbec       :    876.64s CPU    879.49s WALL (    1005 calls)
     fft          :     47.31s CPU     57.25s WALL (    1848 calls)
     ffts         :      0.68s CPU      0.99s WALL (      56 calls)
     fftw         :   1517.50s CPU   1864.66s WALL (  455294 calls)
     interpolate  :      2.14s CPU      2.87s WALL (      56 calls)
     davcio       :      0.00s CPU      0.12s WALL (       6 calls)

     Parallel routines
     fft_scatter  :    731.02s CPU    944.79s WALL (  457198 calls)

     PWSCF        :     2h25m CPU        2h33m WALL


   This run was terminated on:  11:13:40   3Jul2015            

=------------------------------------------------------------------------------=
   JOB DONE.
=------------------------------------------------------------------------------=
