Setting SGE environment for SCC

     Program PWSCF v.5.1.2 starts on  6Jul2015 at  2:48:31 

     This program is part of the open-source Quantum ESPRESSO suite
     for quantum simulation of materials; please cite
         "P. Giannozzi et al., J. Phys.:Condens. Matter 21 395502 (2009);
          URL http://www.quantum-espresso.org", 
     in publications or presentations arising from this work. More details at
     http://www.quantum-espresso.org/quote

     Parallel version (MPI), running on    32 processors
     R & G space division:  proc/nbgrp/npool/nimage =      32
     Reading input from hollow.H2.Au5859.d.2.3.phi.45.psi.0.in
Warning: card &IONS ignored
Warning: card / ignored
Warning: card &CELL ignored
Warning: card / ignored

     Current dimensions of program PWSCF are:
     Max number of different atomic species (ntypx) = 10
     Max number of k-points (npk) =  40000
     Max angular momentum in pseudopotentials (lmaxx) =  3

     IMPORTANT: XC functional enforced from input :
     Exchange-correlation      = VDW-DF ( 1  4  4  0 1 0)
     Any further DFT definition will be discarded
     Please, verify this is what you really want


     Subspace diagonalization in iterative solution of the eigenvalue problem:
     a serial algorithm will be used


     Parallelization info
     --------------------
     sticks:   dense  smooth     PW     G-vecs:    dense   smooth      PW
     Min         578     289     74               118518    41891    5486
     Max         579     290     75               118533    41932    5497
     Sum       18505    9265   2385              3792731  1341081  175711


     Title: 
     hollow.H2.Au5859.d.2.3.phi.45.psi.0                                        


     bravais-lattice index     =            8
     lattice parameter (alat)  =      24.1233  a.u.
     unit-cell volume          =   28076.2361 (a.u.)^3
     number of atoms/cell      =           75
     number of atomic types    =            3
     number of electrons       =       800.00
     number of Kohn-Sham states=          480
     kinetic-energy cutoff     =      50.0000  Ry
     charge density cutoff     =     400.0000  Ry
     convergence threshold     =      1.0E-08
     mixing beta               =       0.7000
     number of iterations used =            8  plain     mixing
     Exchange-correlation      = VDW-DF ( 1  4  4  0 1 0)

     celldm(1)=  24.123277  celldm(2)=   1.000000  celldm(3)=   2.000000
     celldm(4)=   0.000000  celldm(5)=   0.000000  celldm(6)=   0.000000

     crystal axes: (cart. coord. in units of alat)
               a(1) = (   1.000000   0.000000   0.000000 )  
               a(2) = (   0.000000   1.000000   0.000000 )  
               a(3) = (   0.000000   0.000000   2.000000 )  

     reciprocal axes: (cart. coord. in units 2 pi/alat)
               b(1) = (  1.000000  0.000000  0.000000 )  
               b(2) = (  0.000000  1.000000  0.000000 )  
               b(3) = (  0.000000  0.000000  0.500000 )  


     PseudoPot. # 1 for Au read from file:
     /home/scc/andrejb/qe/pseudo/Au.pbe-nd-van.UPF
     MD5 check sum: 458681b50f36d87ef23c61b04bba420a
     Pseudo is Ultrasoft + core correction, Zval = 11.0
     Generated by new atomic code, or converted to UPF format
     Using radial grid of  985 points,  3 beta functions with: 
                l(1) =   1
                l(2) =   2
                l(3) =   2
     Q(r) pseudized with  8 coefficients,  rinner =    1.100   1.100   1.100
                                                       1.100   1.100

     PseudoPot. # 2 for H  read from file:
     /home/scc/andrejb/qe/pseudo/H.pbe-van_ak.UPF
     MD5 check sum: 403db7282739603aa925980fa9b8608d
     Pseudo is Ultrasoft, Zval =  1.0
     Generated by new atomic code, or converted to UPF format
     Using radial grid of  615 points,  1 beta functions with: 
                l(1) =   0
     Q(r) pseudized with  8 coefficients,  rinner =    0.800

     PseudoPot. # 3 for O  read from file:
     /home/scc/andrejb/qe/pseudo/O.pbe-van_ak.UPF
     MD5 check sum: 4b8c549914a63cae506c6ff22b5af4fe
     Pseudo is Ultrasoft, Zval =  6.0
     Generated by new atomic code, or converted to UPF format
     Using radial grid of  737 points,  4 beta functions with: 
                l(1) =   0
                l(2) =   0
                l(3) =   1
                l(4) =   1
     Q(r) pseudized with  8 coefficients,  rinner =    0.800   0.800   0.800


     vdW kernel table read from file vdW_kernel_table
     MD5 check sum: 48e77a2e26edf626eeb0eaa751ad5cac

     atomic species   valence    mass     pseudopotential
        Au            11.00   196.96657     Au( 1.00)
        H              1.00     1.01000     H ( 1.00)
        O              6.00    16.00000     O ( 1.00)

     No symmetry found



   Cartesian axes

     site n.     atom                  positions (alat units)
         1           O   tau(   1) = (   0.1686617   0.1891549   0.9090153  )
         2           H   tau(   2) = (   0.1666051   0.1666105   0.8361597  )
         3           H   tau(   3) = (   0.1627583   0.1245926   0.9492059  )
         4           Au  tau(   4) = (   0.0000000   0.0000000   0.0000000  )
         5           Au  tau(   5) = (   0.3332217   0.0000000   0.0000000  )
         6           Au  tau(   6) = (   0.6664434   0.0000000   0.0000000  )
         7           Au  tau(   7) = (   0.1666109   0.1666109   0.0000000  )
         8           Au  tau(   8) = (   0.4998326   0.1666109   0.0000000  )
         9           Au  tau(   9) = (   0.8330542   0.1666109   0.0000000  )
        10           Au  tau(  10) = (   0.0000000   0.3332217   0.0000000  )
        11           Au  tau(  11) = (   0.3332217   0.3332217   0.0000000  )
        12           Au  tau(  12) = (   0.6664434   0.3332217   0.0000000  )
        13           Au  tau(  13) = (   0.1666109   0.4998326   0.0000000  )
        14           Au  tau(  14) = (   0.4998326   0.4998326   0.0000000  )
        15           Au  tau(  15) = (   0.8330542   0.4998326   0.0000000  )
        16           Au  tau(  16) = (   0.0000000   0.6664434   0.0000000  )
        17           Au  tau(  17) = (   0.3332217   0.6664434   0.0000000  )
        18           Au  tau(  18) = (   0.6664434   0.6664434   0.0000000  )
        19           Au  tau(  19) = (   0.1666109   0.8330542   0.0000000  )
        20           Au  tau(  20) = (   0.4998326   0.8330542   0.0000000  )
        21           Au  tau(  21) = (   0.8330542   0.8330542   0.0000000  )
        22           Au  tau(  22) = (   0.1666109   0.0000000   0.1666109  )
        23           Au  tau(  23) = (   0.4998326   0.0000000   0.1666109  )
        24           Au  tau(  24) = (   0.8330542   0.0000000   0.1666109  )
        25           Au  tau(  25) = (   0.0000000   0.1666109   0.1666109  )
        26           Au  tau(  26) = (   0.3332217   0.1666109   0.1666109  )
        27           Au  tau(  27) = (   0.6664434   0.1666109   0.1666109  )
        28           Au  tau(  28) = (   0.1666109   0.3332217   0.1666109  )
        29           Au  tau(  29) = (   0.4998326   0.3332217   0.1666109  )
        30           Au  tau(  30) = (   0.8330542   0.3332217   0.1666109  )
        31           Au  tau(  31) = (   0.0000000   0.4998326   0.1666109  )
        32           Au  tau(  32) = (   0.3332217   0.4998326   0.1666109  )
        33           Au  tau(  33) = (   0.6664434   0.4998326   0.1666109  )
        34           Au  tau(  34) = (   0.1666109   0.6664434   0.1666109  )
        35           Au  tau(  35) = (   0.4998326   0.6664434   0.1666109  )
        36           Au  tau(  36) = (   0.8330542   0.6664434   0.1666109  )
        37           Au  tau(  37) = (   0.0000000   0.8330542   0.1666109  )
        38           Au  tau(  38) = (   0.3332217   0.8330542   0.1666109  )
        39           Au  tau(  39) = (   0.6664434   0.8330542   0.1666109  )
        40           Au  tau(  40) = (  -0.0000182  -0.0000182   0.3335478  )
        41           Au  tau(  41) = (   0.3332215  -0.0000181   0.3335473  )
        42           Au  tau(  42) = (   0.6664447  -0.0000183   0.3335481  )
        43           Au  tau(  43) = (  -0.0000181   0.3332215   0.3335473  )
        44           Au  tau(  44) = (   0.3332215   0.3332215   0.3335468  )
        45           Au  tau(  45) = (   0.6664445   0.3332215   0.3335477  )
        46           Au  tau(  46) = (  -0.0000183   0.6664447   0.3335481  )
        47           Au  tau(  47) = (   0.3332215   0.6664445   0.3335477  )
        48           Au  tau(  48) = (   0.6664446   0.6664446   0.3335486  )
        49           Au  tau(  49) = (   0.1666097   0.1666097   0.3335483  )
        50           Au  tau(  50) = (   0.4998320   0.1666098   0.3335477  )
        51           Au  tau(  51) = (   0.8330732   0.1666096   0.3335480  )
        52           Au  tau(  52) = (   0.1666098   0.4998320   0.3335477  )
        53           Au  tau(  53) = (   0.4998322   0.4998322   0.3335470  )
        54           Au  tau(  54) = (   0.8330731   0.4998322   0.3335474  )
        55           Au  tau(  55) = (   0.1666096   0.8330732   0.3335480  )
        56           Au  tau(  56) = (   0.4998322   0.8330731   0.3335474  )
        57           Au  tau(  57) = (   0.8330731   0.8330731   0.3335478  )
        58           Au  tau(  58) = (   0.1666104  -0.0000111   0.4993095  )
        59           Au  tau(  59) = (   0.4998323  -0.0000112   0.4993099  )
        60           Au  tau(  60) = (   0.8330660  -0.0000111   0.4993009  )
        61           Au  tau(  61) = (  -0.0000111   0.1666104   0.4993095  )
        62           Au  tau(  62) = (   0.3332213   0.1666106   0.4993185  )
        63           Au  tau(  63) = (   0.6664437   0.1666106   0.4993187  )
        64           Au  tau(  64) = (   0.1666106   0.3332213   0.4993185  )
        65           Au  tau(  65) = (   0.4998324   0.3332216   0.4993185  )
        66           Au  tau(  66) = (   0.8330658   0.3332215   0.4993102  )
        67           Au  tau(  67) = (  -0.0000112   0.4998323   0.4993099  )
        68           Au  tau(  68) = (   0.3332216   0.4998324   0.4993185  )
        69           Au  tau(  69) = (   0.6664437   0.4998325   0.4993187  )
        70           Au  tau(  70) = (   0.1666106   0.6664437   0.4993187  )
        71           Au  tau(  71) = (   0.4998325   0.6664437   0.4993187  )
        72           Au  tau(  72) = (   0.8330658   0.6664438   0.4993102  )
        73           Au  tau(  73) = (  -0.0000111   0.8330660   0.4993009  )
        74           Au  tau(  74) = (   0.3332215   0.8330658   0.4993102  )
        75           Au  tau(  75) = (   0.6664438   0.8330658   0.4993102  )

     number of k points=     6  Marzari-Vanderbilt smearing, width (Ry)=  0.0200
                       cart. coord. in units 2pi/alat
        k(    1) = (   0.2500000   0.2500000   0.0833333), wk =   0.3333333
        k(    2) = (   0.2500000   0.2500000  -0.2500000), wk =   0.3333333
        k(    3) = (  -0.2500000  -0.2500000   0.0833333), wk =   0.3333333
        k(    4) = (  -0.2500000   0.2500000  -0.0833333), wk =   0.3333333
        k(    5) = (   0.2500000  -0.2500000  -0.0833333), wk =   0.3333333
        k(    6) = (  -0.2500000   0.2500000   0.2500000), wk =   0.3333333

     Dense  grid:  3792731 G-vectors     FFT dimensions: ( 160, 160, 320)

     Smooth grid:  1341081 G-vectors     FFT dimensions: ( 120, 120, 225)

     Largest allocated arrays     est. size (Mb)     dimensions
        Kohn-Sham Wavefunctions        38.58 Mb     (    5267,  480)
        NL pseudopotentials            76.03 Mb     (    5267,  946)
        Each V/rho on FFT grid          3.91 Mb     (  256000)
        Each G-vector array             0.90 Mb     (  118520)
        G-vector shells                 0.08 Mb     (   10286)
     Largest temporary arrays     est. size (Mb)     dimensions
        Auxiliary wavefunctions       154.31 Mb     (    5267, 1920)
        Each subspace H/S matrix       56.25 Mb     (    1920, 1920)
        Each <psi_i|beta_j> matrix      6.93 Mb     (     946,  480)
        Arrays for rho mixing          31.25 Mb     (  256000,    8)

     Initial potential from superposition of free atoms
     Check: negative starting charge=   -1.944806

     starting charge  799.16392, renormalised to  800.00000

     negative rho (up, down):  1.947E+00 0.000E+00


     ************************************************************************
     *
     * You are using vdW-DF for exchange-correlation in this calculation.
     * Please cite the following three references that made this development
     * possible:
     *
     *   M. Dion, H. Rydberg, E. Schroder, D. C. Langreth, and
     *   B. I. Lundqvist, Phys. Rev. Lett. 92, 246401 (2004).
     *
     *   T. Thonhauser, V. R. Cooper, S. Li, A. Puzder, P. Hyldgaard, and
     *   D. C. Langreth, Phys. Rev. B 76, 125112 (2007).
     *
     *   G. Roman-Perez and J. M. Soler, Phys. Rev. Lett. 103, 096102 (2009).
     *
     *
     * If you are using vdW-DF2, please also cite:
     *
     *   K. Lee, E. D. Murray, L. Kong, B. I. Lundqvist, and
     *   D. C. Langreth, Phys. Rev. B 82, 081101(R) (2010).
     *
     *
     * If you are calculating the stress with vdW-DF, please also cite:
     *
     *   R. Sabatini, E. Kucukbenli, B. Kolb, T. Thonhauser, and
     *   S. de Gironcoli, J. Phys.: Condens. Matter 24, 424209 (2012).
     *
     ************************************************************************

     Carrying out vdW-DF run using the following parameters:

     Nqs =      20    Nr_points =    1024   r_max =   100.000
     q_mesh =
               0.00001000     0.04494208     0.09755937     0.15916263
               0.23128650     0.31572767     0.41458969     0.53033537
               0.66584808     0.82450364     1.01025438     1.22772762
               1.48234092     1.78043706     2.12944203     2.53805004
               3.01644009     3.57652955     4.23227104     5.00000000

     Gradients computed in reciprocal space

     ************************************************************************


     Starting wfc are  654 randomized atomic wfcs

     total cpu time spent up to now is      113.0 secs

     Self-consistent Calculation

     iteration #  1     ecut=    50.00 Ry     beta=0.70
     Davidson diagonalization with overlap
     ethr =  1.00E-02,  avg # of iterations =  3.0

     Threshold (ethr) on eigenvalues was too large:
     Diagonalizing with lowered threshold

     Davidson diagonalization with overlap
     ethr =  4.29E-04,  avg # of iterations =  2.5

     negative rho (up, down):  1.948E+00 0.000E+00

     total cpu time spent up to now is      493.0 secs

     total energy              =   -7422.99783567 Ry
     Harris-Foulkes estimate   =   -7426.08608975 Ry
     estimated scf accuracy    <       3.80938205 Ry

     iteration #  2     ecut=    50.00 Ry     beta=0.70
     Davidson diagonalization with overlap
     ethr =  4.76E-04,  avg # of iterations = 11.5

     negative rho (up, down):  1.942E+00 0.000E+00

     total cpu time spent up to now is     1286.1 secs

     total energy              =   -7414.85928800 Ry
     Harris-Foulkes estimate   =   -7432.74448444 Ry
     estimated scf accuracy    <      93.69234340 Ry

     iteration #  3     ecut=    50.00 Ry     beta=0.70
     Davidson diagonalization with overlap
     ethr =  4.76E-04,  avg # of iterations =  6.0

     negative rho (up, down):  1.953E+00 0.000E+00

     total cpu time spent up to now is     1733.3 secs

     total energy              =   -7424.01445424 Ry
     Harris-Foulkes estimate   =   -7425.93470120 Ry
     estimated scf accuracy    <       8.33033756 Ry

     iteration #  4     ecut=    50.00 Ry     beta=0.70
     Davidson diagonalization with overlap
     ethr =  4.76E-04,  avg # of iterations =  7.0

     negative rho (up, down):  1.955E+00 0.000E+00

     total cpu time spent up to now is     1990.8 secs

     total energy              =   -7424.75729308 Ry
     Harris-Foulkes estimate   =   -7425.69549690 Ry
     estimated scf accuracy    <       5.35049204 Ry

     iteration #  5     ecut=    50.00 Ry     beta=0.70
     Davidson diagonalization with overlap
     ethr =  4.76E-04,  avg # of iterations =  7.2

     negative rho (up, down):  1.964E+00 0.000E+00

     total cpu time spent up to now is     2252.1 secs

     total energy              =   -7425.09497563 Ry
     Harris-Foulkes estimate   =   -7425.57274622 Ry
     estimated scf accuracy    <       3.69452024 Ry

     iteration #  6     ecut=    50.00 Ry     beta=0.70
     Davidson diagonalization with overlap
     ethr =  4.62E-04,  avg # of iterations =  2.2

     negative rho (up, down):  1.968E+00 0.000E+00

     total cpu time spent up to now is     2437.6 secs

     total energy              =   -7425.28620287 Ry
     Harris-Foulkes estimate   =   -7425.32111955 Ry
     estimated scf accuracy    <       0.10794254 Ry

     iteration #  7     ecut=    50.00 Ry     beta=0.70
     Davidson diagonalization with overlap
     ethr =  1.35E-05,  avg # of iterations =  7.7

     negative rho (up, down):  1.970E+00 0.000E+00

     total cpu time spent up to now is     2761.8 secs

     total energy              =   -7425.27570925 Ry
     Harris-Foulkes estimate   =   -7425.32468987 Ry
     estimated scf accuracy    <       0.26405931 Ry

     iteration #  8     ecut=    50.00 Ry     beta=0.70
     Davidson diagonalization with overlap
     ethr =  1.35E-05,  avg # of iterations =  3.5

     negative rho (up, down):  1.972E+00 0.000E+00

     total cpu time spent up to now is     2970.3 secs

     total energy              =   -7425.28929941 Ry
     Harris-Foulkes estimate   =   -7425.30273872 Ry
     estimated scf accuracy    <       0.04816852 Ry

     iteration #  9     ecut=    50.00 Ry     beta=0.70
     Davidson diagonalization with overlap
     ethr =  6.02E-06,  avg # of iterations =  5.7

     negative rho (up, down):  1.972E+00 0.000E+00

     total cpu time spent up to now is     3209.4 secs

     total energy              =   -7425.28698581 Ry
     Harris-Foulkes estimate   =   -7425.29663226 Ry
     estimated scf accuracy    <       0.03429803 Ry

     iteration # 10     ecut=    50.00 Ry     beta=0.70
     Davidson diagonalization with overlap
     ethr =  4.29E-06,  avg # of iterations =  5.0

     negative rho (up, down):  1.974E+00 0.000E+00

     total cpu time spent up to now is     3432.2 secs

     total energy              =   -7425.28805578 Ry
     Harris-Foulkes estimate   =   -7425.29125036 Ry
     estimated scf accuracy    <       0.01021149 Ry

     iteration # 11     ecut=    50.00 Ry     beta=0.70
     Davidson diagonalization with overlap
     ethr =  1.28E-06,  avg # of iterations =  6.3

     negative rho (up, down):  1.974E+00 0.000E+00

     total cpu time spent up to now is     3674.6 secs

     total energy              =   -7425.28804640 Ry
     Harris-Foulkes estimate   =   -7425.28931414 Ry
     estimated scf accuracy    <       0.00536126 Ry

     iteration # 12     ecut=    50.00 Ry     beta=0.70
     Davidson diagonalization with overlap
     ethr =  6.70E-07,  avg # of iterations =  1.0

     negative rho (up, down):  1.975E+00 0.000E+00

     total cpu time spent up to now is     3848.5 secs

     total energy              =   -7425.28697664 Ry
     Harris-Foulkes estimate   =   -7425.28845201 Ry
     estimated scf accuracy    <       0.00208785 Ry

     iteration # 13     ecut=    50.00 Ry     beta=0.70
     Davidson diagonalization with overlap
     ethr =  2.61E-07,  avg # of iterations =  6.7

     negative rho (up, down):  1.974E+00 0.000E+00

     total cpu time spent up to now is     4100.0 secs

     total energy              =   -7425.28704222 Ry
     Harris-Foulkes estimate   =   -7425.28762314 Ry
     estimated scf accuracy    <       0.00185633 Ry

     iteration # 14     ecut=    50.00 Ry     beta=0.70
     Davidson diagonalization with overlap
     ethr =  2.32E-07,  avg # of iterations =  2.0

     negative rho (up, down):  1.974E+00 0.000E+00

     total cpu time spent up to now is     4280.3 secs

     total energy              =   -7425.28723964 Ry
     Harris-Foulkes estimate   =   -7425.28748201 Ry
     estimated scf accuracy    <       0.00104960 Ry

     iteration # 15     ecut=    50.00 Ry     beta=0.70
     Davidson diagonalization with overlap
     ethr =  1.31E-07,  avg # of iterations =  2.0

     negative rho (up, down):  1.974E+00 0.000E+00

     total cpu time spent up to now is     4461.7 secs

     total energy              =   -7425.28732885 Ry
     Harris-Foulkes estimate   =   -7425.28744109 Ry
     estimated scf accuracy    <       0.00048387 Ry

     iteration # 16     ecut=    50.00 Ry     beta=0.70
     Davidson diagonalization with overlap
     ethr =  6.05E-08,  avg # of iterations =  2.0

     negative rho (up, down):  1.974E+00 0.000E+00

     total cpu time spent up to now is     4636.3 secs

     total energy              =   -7425.28735733 Ry
     Harris-Foulkes estimate   =   -7425.28740959 Ry
     estimated scf accuracy    <       0.00028546 Ry

     iteration # 17     ecut=    50.00 Ry     beta=0.70
     Davidson diagonalization with overlap
     ethr =  3.57E-08,  avg # of iterations =  1.0

     negative rho (up, down):  1.974E+00 0.000E+00

     total cpu time spent up to now is     4811.6 secs

     total energy              =   -7425.28737809 Ry
     Harris-Foulkes estimate   =   -7425.28740362 Ry
     estimated scf accuracy    <       0.00017936 Ry

     iteration # 18     ecut=    50.00 Ry     beta=0.70
     Davidson diagonalization with overlap
     ethr =  2.24E-08,  avg # of iterations =  1.0

     negative rho (up, down):  1.974E+00 0.000E+00

     total cpu time spent up to now is     4981.2 secs

     total energy              =   -7425.28739044 Ry
     Harris-Foulkes estimate   =   -7425.28739250 Ry
     estimated scf accuracy    <       0.00000796 Ry

     iteration # 19     ecut=    50.00 Ry     beta=0.70
     Davidson diagonalization with overlap
     ethr =  9.95E-10,  avg # of iterations =  3.0

     negative rho (up, down):  1.974E+00 0.000E+00

     total cpu time spent up to now is     5201.0 secs

     total energy              =   -7425.28739161 Ry
     Harris-Foulkes estimate   =   -7425.28739254 Ry
     estimated scf accuracy    <       0.00000283 Ry

     iteration # 20     ecut=    50.00 Ry     beta=0.70
     Davidson diagonalization with overlap
     ethr =  3.54E-10,  avg # of iterations =  2.0

     negative rho (up, down):  1.974E+00 0.000E+00

     total cpu time spent up to now is     5413.5 secs

     total energy              =   -7425.28739205 Ry
     Harris-Foulkes estimate   =   -7425.28739251 Ry
     estimated scf accuracy    <       0.00000242 Ry

     iteration # 21     ecut=    50.00 Ry     beta=0.70
     Davidson diagonalization with overlap
     ethr =  3.02E-10,  avg # of iterations =  2.0

     negative rho (up, down):  1.974E+00 0.000E+00

     total cpu time spent up to now is     5588.6 secs

     total energy              =   -7425.28739234 Ry
     Harris-Foulkes estimate   =   -7425.28739256 Ry
     estimated scf accuracy    <       0.00000146 Ry

     iteration # 22     ecut=    50.00 Ry     beta=0.70
     Davidson diagonalization with overlap
     ethr =  1.82E-10,  avg # of iterations =  2.0

     negative rho (up, down):  1.974E+00 0.000E+00

     total cpu time spent up to now is     5780.1 secs

     total energy              =   -7425.28739249 Ry
     Harris-Foulkes estimate   =   -7425.28739260 Ry
     estimated scf accuracy    <       0.00000061 Ry

     iteration # 23     ecut=    50.00 Ry     beta=0.70
     Davidson diagonalization with overlap
     ethr =  7.61E-11,  avg # of iterations =  3.0

     negative rho (up, down):  1.974E+00 0.000E+00

     total cpu time spent up to now is     5971.4 secs

     total energy              =   -7425.28739257 Ry
     Harris-Foulkes estimate   =   -7425.28739257 Ry
     estimated scf accuracy    <       0.00000008 Ry

     iteration # 24     ecut=    50.00 Ry     beta=0.70
     Davidson diagonalization with overlap
     ethr =  9.74E-12,  avg # of iterations =  3.0

     negative rho (up, down):  1.974E+00 0.000E+00

     total cpu time spent up to now is     6220.6 secs

     total energy              =   -7425.28739259 Ry
     Harris-Foulkes estimate   =   -7425.28739261 Ry
     estimated scf accuracy    <       0.00000020 Ry

     iteration # 25     ecut=    50.00 Ry     beta=0.70
     Davidson diagonalization with overlap
     ethr =  9.74E-12,  avg # of iterations =  3.0

     negative rho (up, down):  1.974E+00 0.000E+00

     total cpu time spent up to now is     6416.8 secs

     total energy              =   -7425.28739264 Ry
     Harris-Foulkes estimate   =   -7425.28739262 Ry
     estimated scf accuracy    <       0.00000004 Ry

     iteration # 26     ecut=    50.00 Ry     beta=0.70
     Davidson diagonalization with overlap
     ethr =  5.46E-12,  avg # of iterations =  6.0

     negative rho (up, down):  1.974E+00 0.000E+00

     total cpu time spent up to now is     6646.5 secs

     total energy              =   -7425.28739264 Ry
     Harris-Foulkes estimate   =   -7425.28739265 Ry
     estimated scf accuracy    <       0.00000003 Ry

     iteration # 27     ecut=    50.00 Ry     beta=0.70
     Davidson diagonalization with overlap
     ethr =  4.30E-12,  avg # of iterations =  1.0

     negative rho (up, down):  1.974E+00 0.000E+00

     total cpu time spent up to now is     6810.0 secs

     total energy              =   -7425.28739264 Ry
     Harris-Foulkes estimate   =   -7425.28739265 Ry
     estimated scf accuracy    <       0.00000004 Ry

     iteration # 28     ecut=    50.00 Ry     beta=0.70
     Davidson diagonalization with overlap
     ethr =  4.30E-12,  avg # of iterations =  1.0

     negative rho (up, down):  1.974E+00 0.000E+00

     total cpu time spent up to now is     6972.7 secs

     End of self-consistent calculation

          k = 0.2500 0.2500 0.0833 (167653 PWs)   bands (ev):

   -19.2489  -7.0644  -6.8694  -6.3409  -6.3405  -5.9111  -5.5021  -5.4090
    -5.4086  -5.2129  -5.2128  -5.0951  -5.0945  -5.0165  -4.9934  -4.9204
    -4.8356  -4.8318  -4.7929  -4.7928  -4.6319  -4.6154  -4.6142  -4.6139
    -4.6070  -4.5513  -4.5512  -4.5394  -4.5392  -4.5024  -4.4897  -4.4893
    -4.4476  -4.4475  -4.4141  -4.4128  -4.3609  -4.3606  -4.3497  -4.3489
    -4.3434  -4.3303  -4.3303  -4.2890  -4.2710  -4.2709  -4.2639  -4.2637
    -4.2314  -4.1818  -4.1667  -4.1665  -4.1627  -4.1625  -4.1549  -4.1492
    -4.1488  -4.1488  -4.0837  -4.0832  -4.0339  -4.0334  -4.0212  -3.9952
    -3.9951  -3.9753  -3.9728  -3.9723  -3.9678  -3.9649  -3.9160  -3.9160
    -3.9030  -3.9028  -3.7977  -3.7973  -3.7915  -3.7911  -3.7540  -3.7448
    -3.7304  -3.7007  -3.7006  -3.6721  -3.6718  -3.6502  -3.6500  -3.6365
    -3.6361  -3.5816  -3.5814  -3.5631  -3.5472  -3.5359  -3.5345  -3.5344
    -3.5328  -3.5059  -3.5057  -3.4694  -3.4694  -3.4469  -3.4465  -3.4137
    -3.4134  -3.3952  -3.3679  -3.3678  -3.3305  -3.3303  -3.2950  -3.2875
    -3.2868  -3.2732  -3.2725  -3.2711  -3.2675  -3.2675  -3.2289  -3.2186
    -3.1780  -3.1779  -3.1701  -3.1606  -3.1599  -3.1584  -3.1341  -3.1340
    -3.1128  -3.1122  -3.1120  -3.0852  -3.0852  -3.0776  -3.0748  -3.0747
    -3.0386  -3.0344  -2.9991  -2.9988  -2.9980  -2.9951  -2.9950  -2.9160
    -2.9060  -2.9015  -2.9013  -2.9000  -2.8997  -2.8949  -2.8947  -2.8946
    -2.8944  -2.8849  -2.8770  -2.8599  -2.8573  -2.8567  -2.8563  -2.8417
    -2.8371  -2.7989  -2.7983  -2.7980  -2.7940  -2.7936  -2.7755  -2.7754
    -2.7665  -2.7664  -2.7643  -2.7046  -2.7046  -2.6992  -2.6992  -2.6941
    -2.6940  -2.6658  -2.6069  -2.6055  -2.6053  -2.6034  -2.5921  -2.5898
    -2.5850  -2.5740  -2.5739  -2.5371  -2.5365  -2.5280  -2.5275  -2.5271
    -2.5267  -2.4873  -2.4870  -2.4772  -2.4772  -2.4757  -2.4755  -2.4336
    -2.4176  -2.4121  -2.3588  -2.3586  -2.3400  -2.3384  -2.3332  -2.3331
    -2.2845  -2.2839  -2.2608  -2.2443  -2.2301  -2.2294  -2.2292  -2.2073
    -2.2072  -2.1974  -2.1809  -2.1399  -2.1396  -2.1257  -2.1254  -2.1253
    -2.1143  -2.1141  -2.0987  -2.0986  -2.0983  -2.0942  -2.0893  -2.0888
    -2.0885  -2.0766  -2.0763  -2.0586  -2.0584  -2.0563  -2.0502  -2.0473
    -2.0471  -2.0234  -2.0231  -2.0119  -2.0098  -2.0054  -2.0049  -1.9668
    -1.9329  -1.9326  -1.8972  -1.8800  -1.8798  -1.8691  -1.8686  -1.8455
    -1.8451  -1.8306  -1.8302  -1.8288  -1.8288  -1.8258  -1.8252  -1.7931
    -1.7931  -1.7928  -1.7468  -1.7465  -1.7067  -1.7065  -1.6594  -1.6592
    -1.6470  -1.6245  -1.6193  -1.6167  -1.6003  -1.5985  -1.5812  -1.5808
    -1.5762  -1.5757  -1.5742  -1.5740  -1.5735  -1.5710  -1.5508  -1.5508
    -1.5403  -1.5229  -1.5040  -1.5039  -1.4774  -1.4773  -1.4746  -1.4742
    -1.4711  -1.4684  -1.4467  -1.4462  -1.4317  -1.4309  -1.4185  -1.4082
    -1.3946  -1.3943  -1.3635  -1.3632  -1.3553  -1.3552  -1.3199  -1.3195
    -1.3114  -1.3111  -1.3025  -1.3022  -1.2808  -1.2806  -1.2687  -1.2620
    -1.2618  -1.2515  -1.2486  -1.2482  -1.2478  -1.2473  -1.2334  -1.2230
    -1.2222  -1.2150  -1.2148  -1.2028  -1.1981  -1.1980  -1.1913  -1.1520
    -1.1498  -1.1449  -1.1427  -1.1422  -1.1413  -1.1026  -1.0861  -1.0854
    -1.0851  -1.0850  -1.0806  -1.0803  -1.0754  -1.0627  -1.0602  -1.0237
    -1.0233  -1.0164  -1.0164  -0.9934  -0.9933  -0.9835  -0.9537  -0.9460
    -0.9187  -0.9184  -0.8906  -0.8905  -0.8879  -0.8867  -0.8857  -0.8818
    -0.8786  -0.8764  -0.8719  -0.8716  -0.8397  -0.8395  -0.8218  -0.8209
    -0.8160  -0.8157  -0.8143  -0.8143  -0.7954  -0.5190  -0.5094  -0.4543
    -0.4525  -0.4141  -0.2531  -0.1882  -0.1879  -0.1570   0.1311   0.1312
     0.4603   0.4621   0.5601   0.5601   0.6010   0.6019   0.7446   0.7449
     0.8687   0.8706   0.9563   1.5562   1.5741   1.5750   1.6138   1.6197
     1.6606   1.6660   1.7442   1.7447   1.9518   1.9520   2.1853   2.2660
     2.2680   2.2828   2.6606   2.6655   2.7375   2.7383   2.7444   2.7449
     2.8961   2.8970   2.9405   3.0394   3.0405   3.2717   3.2743   3.4066
     3.4337   3.4341   3.7045   3.7053   3.8175   3.8371   3.8371   3.8827
     3.9179   4.0237   4.0248   4.2608   4.2618   4.3460   4.3502   4.4740
     4.4776   4.4931   4.5003   4.6016   4.7824   5.2974   5.3016   5.4046
     5.4069   5.4536   5.5853   5.5859   5.6235   5.6826   5.6948   5.7031
     5.7103   5.7544   5.7548   5.7980   5.9361   6.0263   6.0447   6.0677
     6.0828   6.0934   6.0972   6.1062   6.1068   6.1193   6.1256   6.1737

          k = 0.2500 0.2500-0.2500 (167588 PWs)   bands (ev):

   -19.2489  -7.0644  -6.8694  -6.3409  -6.3405  -5.9111  -5.5021  -5.4090
    -5.4086  -5.2129  -5.2128  -5.0951  -5.0945  -5.0164  -4.9934  -4.9204
    -4.8356  -4.8318  -4.7929  -4.7928  -4.6319  -4.6154  -4.6142  -4.6139
    -4.6070  -4.5513  -4.5512  -4.5394  -4.5392  -4.5024  -4.4897  -4.4893
    -4.4476  -4.4475  -4.4141  -4.4128  -4.3609  -4.3605  -4.3497  -4.3489
    -4.3435  -4.3303  -4.3303  -4.2890  -4.2710  -4.2709  -4.2639  -4.2637
    -4.2314  -4.1818  -4.1667  -4.1665  -4.1627  -4.1624  -4.1549  -4.1492
    -4.1488  -4.1488  -4.0837  -4.0832  -4.0339  -4.0334  -4.0212  -3.9952
    -3.9951  -3.9753  -3.9728  -3.9722  -3.9678  -3.9650  -3.9160  -3.9160
    -3.9030  -3.9028  -3.7977  -3.7973  -3.7915  -3.7911  -3.7540  -3.7448
    -3.7304  -3.7007  -3.7006  -3.6721  -3.6718  -3.6502  -3.6500  -3.6365
    -3.6361  -3.5816  -3.5814  -3.5631  -3.5472  -3.5359  -3.5345  -3.5344
    -3.5328  -3.5058  -3.5057  -3.4694  -3.4694  -3.4469  -3.4465  -3.4137
    -3.4134  -3.3952  -3.3679  -3.3678  -3.3305  -3.3303  -3.2950  -3.2875
    -3.2868  -3.2732  -3.2725  -3.2711  -3.2675  -3.2675  -3.2289  -3.2186
    -3.1780  -3.1779  -3.1701  -3.1606  -3.1599  -3.1584  -3.1341  -3.1340
    -3.1128  -3.1122  -3.1120  -3.0852  -3.0852  -3.0776  -3.0748  -3.0747
    -3.0386  -3.0344  -2.9991  -2.9988  -2.9980  -2.9951  -2.9950  -2.9160
    -2.9060  -2.9015  -2.9013  -2.9000  -2.8997  -2.8949  -2.8947  -2.8946
    -2.8944  -2.8849  -2.8770  -2.8599  -2.8573  -2.8567  -2.8563  -2.8417
    -2.8371  -2.7989  -2.7983  -2.7980  -2.7940  -2.7936  -2.7755  -2.7754
    -2.7665  -2.7664  -2.7643  -2.7046  -2.7046  -2.6992  -2.6992  -2.6941
    -2.6939  -2.6659  -2.6069  -2.6055  -2.6053  -2.6034  -2.5921  -2.5898
    -2.5850  -2.5740  -2.5739  -2.5371  -2.5365  -2.5280  -2.5275  -2.5271
    -2.5267  -2.4873  -2.4870  -2.4772  -2.4772  -2.4757  -2.4755  -2.4336
    -2.4176  -2.4121  -2.3588  -2.3586  -2.3400  -2.3384  -2.3332  -2.3331
    -2.2845  -2.2839  -2.2608  -2.2443  -2.2301  -2.2294  -2.2292  -2.2072
    -2.2071  -2.1974  -2.1809  -2.1399  -2.1396  -2.1257  -2.1254  -2.1253
    -2.1143  -2.1141  -2.0987  -2.0986  -2.0983  -2.0942  -2.0893  -2.0888
    -2.0885  -2.0766  -2.0763  -2.0586  -2.0584  -2.0564  -2.0502  -2.0473
    -2.0471  -2.0234  -2.0231  -2.0119  -2.0098  -2.0054  -2.0049  -1.9668
    -1.9329  -1.9326  -1.8972  -1.8800  -1.8798  -1.8691  -1.8686  -1.8455
    -1.8450  -1.8306  -1.8302  -1.8288  -1.8288  -1.8258  -1.8252  -1.7931
    -1.7931  -1.7928  -1.7468  -1.7465  -1.7067  -1.7065  -1.6594  -1.6592
    -1.6470  -1.6245  -1.6193  -1.6167  -1.6003  -1.5985  -1.5812  -1.5808
    -1.5762  -1.5757  -1.5742  -1.5740  -1.5734  -1.5710  -1.5508  -1.5508
    -1.5403  -1.5229  -1.5040  -1.5039  -1.4774  -1.4773  -1.4746  -1.4742
    -1.4711  -1.4684  -1.4466  -1.4462  -1.4317  -1.4309  -1.4185  -1.4082
    -1.3946  -1.3943  -1.3635  -1.3632  -1.3553  -1.3552  -1.3199  -1.3195
    -1.3114  -1.3111  -1.3025  -1.3022  -1.2808  -1.2806  -1.2687  -1.2620
    -1.2618  -1.2515  -1.2486  -1.2482  -1.2478  -1.2473  -1.2334  -1.2230
    -1.2222  -1.2150  -1.2148  -1.2028  -1.1981  -1.1980  -1.1913  -1.1520
    -1.1498  -1.1449  -1.1427  -1.1422  -1.1413  -1.1026  -1.0861  -1.0854
    -1.0851  -1.0850  -1.0806  -1.0803  -1.0754  -1.0627  -1.0602  -1.0237
    -1.0233  -1.0164  -1.0164  -0.9934  -0.9933  -0.9835  -0.9537  -0.9460
    -0.9187  -0.9184  -0.8906  -0.8905  -0.8879  -0.8868  -0.8857  -0.8818
    -0.8786  -0.8764  -0.8719  -0.8716  -0.8397  -0.8395  -0.8218  -0.8209
    -0.8160  -0.8157  -0.8143  -0.8142  -0.7954  -0.5190  -0.5094  -0.4543
    -0.4525  -0.4141  -0.2531  -0.1882  -0.1879  -0.1570   0.1311   0.1312
     0.4603   0.4621   0.5601   0.5601   0.6011   0.6019   0.7446   0.7449
     0.8687   0.8706   0.9563   1.5562   1.5741   1.5750   1.6138   1.6197
     1.6606   1.6660   1.7442   1.7447   1.9518   1.9520   2.1853   2.2660
     2.2680   2.2828   2.6606   2.6655   2.7375   2.7383   2.7444   2.7449
     2.8961   2.8970   2.9406   3.0394   3.0405   3.2717   3.2743   3.4066
     3.4337   3.4341   3.7045   3.7053   3.8175   3.8371   3.8371   3.8828
     3.9180   4.0237   4.0248   4.2608   4.2618   4.3460   4.3502   4.4740
     4.4776   4.4931   4.5003   4.6012   4.7792   5.2952   5.3016   5.4045
     5.4063   5.4513   5.5854   5.5859   5.6399   5.6770   5.6996   5.7032
     5.7352   5.7544   5.7548   5.7981   5.9462   6.0110   6.0470   6.0677
     6.0829   6.0929   6.0973   6.1062   6.1081   6.1509   6.1664   6.2452

          k =-0.2500-0.2500 0.0833 (167653 PWs)   bands (ev):

   -19.2489  -7.0644  -6.8694  -6.3409  -6.3405  -5.9111  -5.5021  -5.4090
    -5.4086  -5.2129  -5.2128  -5.0951  -5.0945  -5.0165  -4.9934  -4.9204
    -4.8356  -4.8318  -4.7929  -4.7928  -4.6319  -4.6154  -4.6142  -4.6139
    -4.6070  -4.5513  -4.5512  -4.5394  -4.5392  -4.5024  -4.4897  -4.4893
    -4.4476  -4.4475  -4.4141  -4.4128  -4.3609  -4.3606  -4.3497  -4.3489
    -4.3434  -4.3303  -4.3303  -4.2890  -4.2710  -4.2709  -4.2639  -4.2637
    -4.2314  -4.1818  -4.1667  -4.1665  -4.1627  -4.1625  -4.1549  -4.1492
    -4.1488  -4.1488  -4.0837  -4.0832  -4.0339  -4.0334  -4.0212  -3.9952
    -3.9951  -3.9753  -3.9728  -3.9723  -3.9678  -3.9649  -3.9160  -3.9160
    -3.9030  -3.9028  -3.7977  -3.7973  -3.7915  -3.7911  -3.7540  -3.7448
    -3.7304  -3.7007  -3.7006  -3.6721  -3.6718  -3.6502  -3.6500  -3.6365
    -3.6361  -3.5816  -3.5814  -3.5631  -3.5472  -3.5359  -3.5345  -3.5344
    -3.5328  -3.5059  -3.5057  -3.4694  -3.4694  -3.4469  -3.4465  -3.4137
    -3.4134  -3.3952  -3.3679  -3.3678  -3.3305  -3.3303  -3.2950  -3.2875
    -3.2868  -3.2732  -3.2725  -3.2711  -3.2675  -3.2675  -3.2289  -3.2186
    -3.1780  -3.1779  -3.1701  -3.1606  -3.1599  -3.1584  -3.1341  -3.1340
    -3.1128  -3.1122  -3.1120  -3.0852  -3.0852  -3.0776  -3.0748  -3.0747
    -3.0386  -3.0344  -2.9991  -2.9988  -2.9980  -2.9951  -2.9950  -2.9160
    -2.9060  -2.9015  -2.9013  -2.9000  -2.8997  -2.8949  -2.8947  -2.8946
    -2.8944  -2.8849  -2.8770  -2.8599  -2.8573  -2.8567  -2.8563  -2.8417
    -2.8371  -2.7989  -2.7983  -2.7980  -2.7940  -2.7936  -2.7755  -2.7754
    -2.7665  -2.7664  -2.7643  -2.7046  -2.7046  -2.6992  -2.6992  -2.6941
    -2.6940  -2.6658  -2.6069  -2.6055  -2.6053  -2.6034  -2.5921  -2.5898
    -2.5850  -2.5740  -2.5739  -2.5371  -2.5365  -2.5280  -2.5275  -2.5271
    -2.5267  -2.4873  -2.4870  -2.4772  -2.4772  -2.4757  -2.4755  -2.4336
    -2.4176  -2.4121  -2.3588  -2.3586  -2.3400  -2.3384  -2.3332  -2.3331
    -2.2845  -2.2839  -2.2608  -2.2443  -2.2301  -2.2294  -2.2292  -2.2073
    -2.2072  -2.1974  -2.1809  -2.1399  -2.1396  -2.1257  -2.1254  -2.1253
    -2.1143  -2.1141  -2.0987  -2.0986  -2.0983  -2.0942  -2.0893  -2.0888
    -2.0885  -2.0766  -2.0763  -2.0586  -2.0584  -2.0563  -2.0502  -2.0473
    -2.0471  -2.0234  -2.0231  -2.0119  -2.0098  -2.0054  -2.0049  -1.9668
    -1.9329  -1.9326  -1.8972  -1.8800  -1.8798  -1.8691  -1.8686  -1.8455
    -1.8451  -1.8306  -1.8302  -1.8288  -1.8288  -1.8258  -1.8252  -1.7931
    -1.7931  -1.7928  -1.7468  -1.7465  -1.7067  -1.7065  -1.6594  -1.6592
    -1.6470  -1.6245  -1.6193  -1.6167  -1.6003  -1.5985  -1.5812  -1.5808
    -1.5762  -1.5757  -1.5742  -1.5740  -1.5735  -1.5710  -1.5508  -1.5508
    -1.5403  -1.5229  -1.5040  -1.5039  -1.4774  -1.4773  -1.4746  -1.4742
    -1.4711  -1.4684  -1.4467  -1.4462  -1.4317  -1.4309  -1.4185  -1.4082
    -1.3946  -1.3943  -1.3635  -1.3632  -1.3553  -1.3552  -1.3199  -1.3195
    -1.3114  -1.3111  -1.3025  -1.3022  -1.2808  -1.2806  -1.2687  -1.2620
    -1.2618  -1.2515  -1.2486  -1.2482  -1.2478  -1.2473  -1.2334  -1.2230
    -1.2222  -1.2150  -1.2148  -1.2028  -1.1981  -1.1980  -1.1913  -1.1520
    -1.1498  -1.1449  -1.1427  -1.1422  -1.1413  -1.1026  -1.0861  -1.0854
    -1.0851  -1.0850  -1.0806  -1.0803  -1.0754  -1.0627  -1.0602  -1.0237
    -1.0233  -1.0164  -1.0164  -0.9934  -0.9933  -0.9835  -0.9537  -0.9460
    -0.9187  -0.9184  -0.8906  -0.8905  -0.8879  -0.8867  -0.8857  -0.8818
    -0.8786  -0.8764  -0.8719  -0.8716  -0.8397  -0.8395  -0.8218  -0.8209
    -0.8160  -0.8157  -0.8143  -0.8143  -0.7954  -0.5190  -0.5094  -0.4543
    -0.4525  -0.4141  -0.2531  -0.1882  -0.1879  -0.1570   0.1311   0.1312
     0.4603   0.4621   0.5601   0.5601   0.6010   0.6019   0.7446   0.7449
     0.8687   0.8706   0.9563   1.5562   1.5741   1.5750   1.6138   1.6197
     1.6606   1.6660   1.7442   1.7447   1.9518   1.9520   2.1853   2.2660
     2.2680   2.2828   2.6606   2.6655   2.7375   2.7383   2.7444   2.7449
     2.8961   2.8970   2.9405   3.0394   3.0405   3.2717   3.2743   3.4066
     3.4337   3.4341   3.7045   3.7053   3.8175   3.8371   3.8371   3.8827
     3.9179   4.0237   4.0248   4.2608   4.2618   4.3460   4.3502   4.4740
     4.4776   4.4931   4.5003   4.6015   4.7824   5.2974   5.3016   5.4046
     5.4069   5.4554   5.5853   5.5859   5.6212   5.6819   5.6942   5.7032
     5.7098   5.7544   5.7548   5.7981   5.9336   6.0290   6.0455   6.0678
     6.0828   6.0936   6.0972   6.1062   6.1201   6.1308   6.1740   6.1980

          k =-0.2500 0.2500-0.0833 (167653 PWs)   bands (ev):

   -19.2489  -7.0644  -6.8694  -6.3409  -6.3405  -5.9111  -5.5021  -5.4090
    -5.4087  -5.2129  -5.2128  -5.0951  -5.0946  -5.0165  -4.9934  -4.9204
    -4.8356  -4.8318  -4.7929  -4.7928  -4.6319  -4.6154  -4.6142  -4.6139
    -4.6070  -4.5513  -4.5512  -4.5394  -4.5392  -4.5024  -4.4898  -4.4893
    -4.4476  -4.4475  -4.4141  -4.4128  -4.3610  -4.3605  -4.3497  -4.3489
    -4.3434  -4.3303  -4.3303  -4.2890  -4.2710  -4.2708  -4.2639  -4.2637
    -4.2314  -4.1818  -4.1668  -4.1665  -4.1627  -4.1625  -4.1549  -4.1492
    -4.1488  -4.1488  -4.0837  -4.0832  -4.0338  -4.0336  -4.0212  -3.9952
    -3.9951  -3.9753  -3.9728  -3.9722  -3.9678  -3.9649  -3.9160  -3.9160
    -3.9030  -3.9027  -3.7977  -3.7973  -3.7915  -3.7911  -3.7540  -3.7448
    -3.7304  -3.7007  -3.7006  -3.6721  -3.6718  -3.6502  -3.6500  -3.6365
    -3.6361  -3.5816  -3.5814  -3.5631  -3.5472  -3.5359  -3.5345  -3.5344
    -3.5328  -3.5058  -3.5057  -3.4694  -3.4694  -3.4468  -3.4465  -3.4137
    -3.4134  -3.3952  -3.3679  -3.3678  -3.3305  -3.3303  -3.2950  -3.2875
    -3.2868  -3.2732  -3.2725  -3.2711  -3.2675  -3.2675  -3.2289  -3.2186
    -3.1780  -3.1779  -3.1701  -3.1606  -3.1599  -3.1584  -3.1340  -3.1340
    -3.1128  -3.1124  -3.1118  -3.0852  -3.0852  -3.0776  -3.0748  -3.0747
    -3.0386  -3.0344  -2.9991  -2.9988  -2.9980  -2.9951  -2.9950  -2.9160
    -2.9060  -2.9016  -2.9012  -2.8999  -2.8997  -2.8949  -2.8948  -2.8946
    -2.8943  -2.8849  -2.8770  -2.8599  -2.8573  -2.8567  -2.8563  -2.8417
    -2.8371  -2.7989  -2.7983  -2.7980  -2.7940  -2.7936  -2.7756  -2.7753
    -2.7665  -2.7664  -2.7643  -2.7046  -2.7046  -2.6992  -2.6992  -2.6941
    -2.6940  -2.6658  -2.6068  -2.6056  -2.6051  -2.6034  -2.5921  -2.5898
    -2.5850  -2.5740  -2.5739  -2.5371  -2.5365  -2.5280  -2.5275  -2.5270
    -2.5267  -2.4873  -2.4870  -2.4772  -2.4772  -2.4757  -2.4755  -2.4336
    -2.4176  -2.4121  -2.3588  -2.3586  -2.3400  -2.3384  -2.3332  -2.3331
    -2.2845  -2.2839  -2.2608  -2.2443  -2.2301  -2.2295  -2.2292  -2.2073
    -2.2072  -2.1974  -2.1809  -2.1400  -2.1396  -2.1257  -2.1254  -2.1253
    -2.1143  -2.1141  -2.0987  -2.0986  -2.0983  -2.0942  -2.0893  -2.0888
    -2.0885  -2.0766  -2.0763  -2.0586  -2.0584  -2.0563  -2.0502  -2.0473
    -2.0471  -2.0234  -2.0231  -2.0119  -2.0098  -2.0054  -2.0049  -1.9668
    -1.9329  -1.9325  -1.8972  -1.8800  -1.8798  -1.8691  -1.8686  -1.8455
    -1.8451  -1.8306  -1.8302  -1.8288  -1.8288  -1.8258  -1.8252  -1.7931
    -1.7931  -1.7928  -1.7468  -1.7465  -1.7068  -1.7065  -1.6594  -1.6592
    -1.6470  -1.6245  -1.6193  -1.6167  -1.6003  -1.5985  -1.5812  -1.5808
    -1.5762  -1.5757  -1.5743  -1.5740  -1.5734  -1.5710  -1.5508  -1.5508
    -1.5403  -1.5229  -1.5040  -1.5039  -1.4774  -1.4773  -1.4746  -1.4742
    -1.4711  -1.4684  -1.4467  -1.4462  -1.4317  -1.4309  -1.4185  -1.4082
    -1.3946  -1.3943  -1.3635  -1.3632  -1.3553  -1.3552  -1.3199  -1.3195
    -1.3114  -1.3111  -1.3025  -1.3022  -1.2808  -1.2806  -1.2687  -1.2620
    -1.2618  -1.2516  -1.2486  -1.2482  -1.2477  -1.2471  -1.2334  -1.2230
    -1.2222  -1.2150  -1.2148  -1.2028  -1.1981  -1.1980  -1.1913  -1.1520
    -1.1498  -1.1449  -1.1427  -1.1422  -1.1413  -1.1026  -1.0861  -1.0854
    -1.0851  -1.0850  -1.0806  -1.0803  -1.0754  -1.0627  -1.0602  -1.0237
    -1.0233  -1.0164  -1.0164  -0.9935  -0.9933  -0.9835  -0.9537  -0.9460
    -0.9187  -0.9184  -0.8906  -0.8904  -0.8879  -0.8868  -0.8857  -0.8818
    -0.8786  -0.8764  -0.8719  -0.8716  -0.8397  -0.8395  -0.8218  -0.8209
    -0.8160  -0.8157  -0.8143  -0.8142  -0.7954  -0.5190  -0.5094  -0.4543
    -0.4525  -0.4141  -0.2531  -0.1882  -0.1879  -0.1570   0.1311   0.1312
     0.4603   0.4621   0.5601   0.5601   0.6010   0.6019   0.7445   0.7450
     0.8687   0.8706   0.9563   1.5562   1.5741   1.5750   1.6138   1.6197
     1.6606   1.6660   1.7442   1.7447   1.9518   1.9520   2.1853   2.2660
     2.2680   2.2828   2.6606   2.6655   2.7375   2.7383   2.7444   2.7449
     2.8961   2.8970   2.9405   3.0393   3.0406   3.2717   3.2743   3.4066
     3.4337   3.4341   3.7044   3.7053   3.8175   3.8371   3.8371   3.8828
     3.9179   4.0237   4.0248   4.2608   4.2618   4.3461   4.3501   4.4740
     4.4776   4.4931   4.5003   4.6010   4.7828   5.2976   5.3017   5.4046
     5.4068   5.4554   5.5853   5.5859   5.6218   5.6809   5.6945   5.7031
     5.7104   5.7544   5.7548   5.7981   5.9340   6.0269   6.0463   6.0678
     6.0828   6.0936   6.0973   6.1062   6.1204   6.1309   6.1732   6.1980

          k = 0.2500-0.2500-0.0833 (167653 PWs)   bands (ev):

   -19.2489  -7.0644  -6.8694  -6.3409  -6.3405  -5.9111  -5.5021  -5.4090
    -5.4087  -5.2129  -5.2128  -5.0951  -5.0946  -5.0165  -4.9934  -4.9204
    -4.8356  -4.8318  -4.7929  -4.7928  -4.6319  -4.6154  -4.6142  -4.6139
    -4.6070  -4.5513  -4.5512  -4.5394  -4.5392  -4.5024  -4.4898  -4.4893
    -4.4476  -4.4475  -4.4141  -4.4128  -4.3610  -4.3605  -4.3497  -4.3489
    -4.3434  -4.3303  -4.3303  -4.2890  -4.2710  -4.2708  -4.2639  -4.2637
    -4.2314  -4.1818  -4.1668  -4.1665  -4.1627  -4.1625  -4.1549  -4.1492
    -4.1488  -4.1488  -4.0837  -4.0832  -4.0338  -4.0336  -4.0212  -3.9952
    -3.9951  -3.9753  -3.9728  -3.9722  -3.9678  -3.9649  -3.9160  -3.9160
    -3.9030  -3.9027  -3.7977  -3.7973  -3.7915  -3.7911  -3.7540  -3.7448
    -3.7304  -3.7007  -3.7006  -3.6721  -3.6718  -3.6502  -3.6500  -3.6365
    -3.6361  -3.5816  -3.5814  -3.5631  -3.5472  -3.5359  -3.5345  -3.5344
    -3.5328  -3.5058  -3.5057  -3.4694  -3.4694  -3.4468  -3.4465  -3.4137
    -3.4134  -3.3952  -3.3679  -3.3678  -3.3305  -3.3303  -3.2950  -3.2875
    -3.2868  -3.2732  -3.2725  -3.2711  -3.2675  -3.2675  -3.2289  -3.2186
    -3.1780  -3.1779  -3.1701  -3.1606  -3.1599  -3.1584  -3.1340  -3.1340
    -3.1128  -3.1124  -3.1118  -3.0852  -3.0852  -3.0776  -3.0748  -3.0747
    -3.0386  -3.0344  -2.9991  -2.9988  -2.9980  -2.9951  -2.9950  -2.9160
    -2.9060  -2.9016  -2.9012  -2.8999  -2.8997  -2.8949  -2.8948  -2.8946
    -2.8943  -2.8849  -2.8770  -2.8599  -2.8573  -2.8567  -2.8563  -2.8417
    -2.8371  -2.7989  -2.7983  -2.7980  -2.7940  -2.7936  -2.7756  -2.7753
    -2.7665  -2.7664  -2.7643  -2.7046  -2.7046  -2.6992  -2.6992  -2.6941
    -2.6940  -2.6658  -2.6068  -2.6056  -2.6051  -2.6034  -2.5921  -2.5898
    -2.5850  -2.5740  -2.5739  -2.5371  -2.5365  -2.5280  -2.5275  -2.5270
    -2.5267  -2.4873  -2.4870  -2.4772  -2.4772  -2.4757  -2.4755  -2.4336
    -2.4176  -2.4121  -2.3588  -2.3586  -2.3400  -2.3384  -2.3332  -2.3331
    -2.2845  -2.2839  -2.2608  -2.2443  -2.2301  -2.2295  -2.2292  -2.2073
    -2.2072  -2.1974  -2.1809  -2.1400  -2.1396  -2.1257  -2.1254  -2.1253
    -2.1143  -2.1141  -2.0987  -2.0986  -2.0983  -2.0942  -2.0893  -2.0888
    -2.0885  -2.0766  -2.0763  -2.0586  -2.0584  -2.0563  -2.0502  -2.0473
    -2.0471  -2.0234  -2.0231  -2.0119  -2.0098  -2.0054  -2.0049  -1.9668
    -1.9329  -1.9325  -1.8972  -1.8800  -1.8798  -1.8691  -1.8686  -1.8455
    -1.8451  -1.8306  -1.8302  -1.8288  -1.8288  -1.8258  -1.8252  -1.7931
    -1.7931  -1.7928  -1.7468  -1.7465  -1.7068  -1.7065  -1.6594  -1.6592
    -1.6470  -1.6245  -1.6193  -1.6167  -1.6003  -1.5985  -1.5812  -1.5808
    -1.5762  -1.5757  -1.5743  -1.5740  -1.5734  -1.5710  -1.5508  -1.5508
    -1.5403  -1.5229  -1.5040  -1.5039  -1.4774  -1.4773  -1.4746  -1.4742
    -1.4711  -1.4684  -1.4467  -1.4462  -1.4317  -1.4309  -1.4185  -1.4082
    -1.3946  -1.3943  -1.3635  -1.3632  -1.3553  -1.3552  -1.3199  -1.3195
    -1.3114  -1.3111  -1.3025  -1.3022  -1.2808  -1.2806  -1.2687  -1.2620
    -1.2618  -1.2516  -1.2486  -1.2482  -1.2477  -1.2471  -1.2334  -1.2230
    -1.2222  -1.2150  -1.2148  -1.2028  -1.1981  -1.1980  -1.1913  -1.1520
    -1.1498  -1.1449  -1.1427  -1.1422  -1.1413  -1.1026  -1.0861  -1.0854
    -1.0851  -1.0850  -1.0806  -1.0803  -1.0754  -1.0627  -1.0602  -1.0237
    -1.0233  -1.0164  -1.0164  -0.9935  -0.9933  -0.9835  -0.9537  -0.9460
    -0.9187  -0.9184  -0.8906  -0.8904  -0.8879  -0.8868  -0.8857  -0.8818
    -0.8786  -0.8764  -0.8719  -0.8716  -0.8397  -0.8395  -0.8218  -0.8209
    -0.8160  -0.8157  -0.8143  -0.8142  -0.7954  -0.5190  -0.5094  -0.4543
    -0.4525  -0.4141  -0.2531  -0.1882  -0.1879  -0.1570   0.1311   0.1312
     0.4603   0.4621   0.5601   0.5601   0.6010   0.6019   0.7445   0.7450
     0.8687   0.8706   0.9563   1.5562   1.5741   1.5750   1.6138   1.6197
     1.6606   1.6660   1.7442   1.7447   1.9518   1.9520   2.1853   2.2660
     2.2680   2.2828   2.6606   2.6655   2.7375   2.7383   2.7444   2.7449
     2.8961   2.8970   2.9405   3.0393   3.0406   3.2717   3.2743   3.4066
     3.4337   3.4341   3.7044   3.7053   3.8175   3.8371   3.8371   3.8828
     3.9179   4.0237   4.0248   4.2608   4.2618   4.3461   4.3501   4.4740
     4.4776   4.4931   4.5003   4.6010   4.7827   5.2975   5.3017   5.4046
     5.4068   5.4539   5.5853   5.5860   5.6236   5.6813   5.6952   5.7031
     5.7109   5.7544   5.7548   5.7980   5.9360   6.0247   6.0456   6.0676
     6.0828   6.0935   6.0972   6.1062   6.1068   6.1196   6.1266   6.1737

          k =-0.2500 0.2500 0.2500 (167588 PWs)   bands (ev):

   -19.2489  -7.0644  -6.8694  -6.3409  -6.3405  -5.9111  -5.5021  -5.4090
    -5.4087  -5.2129  -5.2128  -5.0951  -5.0946  -5.0164  -4.9934  -4.9204
    -4.8356  -4.8318  -4.7929  -4.7928  -4.6319  -4.6154  -4.6142  -4.6139
    -4.6070  -4.5513  -4.5512  -4.5394  -4.5392  -4.5024  -4.4898  -4.4893
    -4.4476  -4.4475  -4.4141  -4.4128  -4.3610  -4.3605  -4.3497  -4.3489
    -4.3434  -4.3303  -4.3303  -4.2890  -4.2710  -4.2708  -4.2639  -4.2637
    -4.2314  -4.1818  -4.1668  -4.1665  -4.1627  -4.1625  -4.1549  -4.1492
    -4.1488  -4.1488  -4.0837  -4.0832  -4.0338  -4.0336  -4.0212  -3.9952
    -3.9951  -3.9753  -3.9728  -3.9722  -3.9678  -3.9650  -3.9160  -3.9160
    -3.9030  -3.9027  -3.7977  -3.7973  -3.7915  -3.7911  -3.7540  -3.7448
    -3.7304  -3.7007  -3.7006  -3.6721  -3.6718  -3.6502  -3.6500  -3.6365
    -3.6361  -3.5816  -3.5814  -3.5631  -3.5472  -3.5359  -3.5345  -3.5344
    -3.5328  -3.5058  -3.5057  -3.4694  -3.4694  -3.4468  -3.4465  -3.4137
    -3.4134  -3.3952  -3.3679  -3.3678  -3.3305  -3.3303  -3.2950  -3.2875
    -3.2868  -3.2732  -3.2725  -3.2711  -3.2675  -3.2675  -3.2289  -3.2186
    -3.1780  -3.1779  -3.1701  -3.1606  -3.1599  -3.1584  -3.1340  -3.1340
    -3.1128  -3.1124  -3.1118  -3.0852  -3.0852  -3.0776  -3.0748  -3.0747
    -3.0386  -3.0344  -2.9991  -2.9988  -2.9980  -2.9951  -2.9950  -2.9160
    -2.9060  -2.9016  -2.9012  -2.8999  -2.8997  -2.8949  -2.8948  -2.8946
    -2.8943  -2.8849  -2.8770  -2.8599  -2.8573  -2.8567  -2.8563  -2.8417
    -2.8371  -2.7989  -2.7983  -2.7980  -2.7940  -2.7936  -2.7756  -2.7753
    -2.7665  -2.7664  -2.7643  -2.7046  -2.7046  -2.6992  -2.6992  -2.6941
    -2.6939  -2.6659  -2.6068  -2.6056  -2.6051  -2.6034  -2.5921  -2.5898
    -2.5850  -2.5740  -2.5739  -2.5371  -2.5365  -2.5280  -2.5275  -2.5270
    -2.5267  -2.4873  -2.4870  -2.4772  -2.4772  -2.4757  -2.4755  -2.4336
    -2.4176  -2.4121  -2.3588  -2.3586  -2.3400  -2.3384  -2.3332  -2.3331
    -2.2845  -2.2839  -2.2608  -2.2443  -2.2301  -2.2294  -2.2292  -2.2072
    -2.2071  -2.1974  -2.1809  -2.1400  -2.1395  -2.1257  -2.1254  -2.1253
    -2.1143  -2.1141  -2.0987  -2.0986  -2.0983  -2.0942  -2.0893  -2.0888
    -2.0885  -2.0766  -2.0763  -2.0586  -2.0584  -2.0564  -2.0502  -2.0473
    -2.0471  -2.0234  -2.0231  -2.0119  -2.0098  -2.0054  -2.0049  -1.9668
    -1.9329  -1.9325  -1.8972  -1.8800  -1.8798  -1.8691  -1.8686  -1.8455
    -1.8450  -1.8306  -1.8302  -1.8288  -1.8288  -1.8258  -1.8252  -1.7931
    -1.7931  -1.7928  -1.7468  -1.7465  -1.7068  -1.7065  -1.6594  -1.6592
    -1.6470  -1.6245  -1.6193  -1.6167  -1.6003  -1.5985  -1.5812  -1.5808
    -1.5762  -1.5757  -1.5743  -1.5740  -1.5734  -1.5710  -1.5508  -1.5508
    -1.5403  -1.5229  -1.5040  -1.5039  -1.4774  -1.4773  -1.4746  -1.4742
    -1.4711  -1.4684  -1.4466  -1.4462  -1.4317  -1.4309  -1.4185  -1.4082
    -1.3946  -1.3943  -1.3635  -1.3632  -1.3553  -1.3552  -1.3199  -1.3195
    -1.3114  -1.3111  -1.3025  -1.3022  -1.2808  -1.2806  -1.2687  -1.2620
    -1.2618  -1.2516  -1.2486  -1.2482  -1.2477  -1.2471  -1.2334  -1.2230
    -1.2222  -1.2150  -1.2148  -1.2028  -1.1981  -1.1980  -1.1913  -1.1520
    -1.1498  -1.1449  -1.1427  -1.1422  -1.1413  -1.1026  -1.0861  -1.0854
    -1.0851  -1.0850  -1.0806  -1.0803  -1.0754  -1.0627  -1.0602  -1.0237
    -1.0233  -1.0164  -1.0164  -0.9934  -0.9933  -0.9835  -0.9537  -0.9460
    -0.9187  -0.9184  -0.8906  -0.8904  -0.8879  -0.8868  -0.8857  -0.8818
    -0.8786  -0.8764  -0.8719  -0.8716  -0.8397  -0.8395  -0.8218  -0.8209
    -0.8160  -0.8157  -0.8143  -0.8142  -0.7954  -0.5190  -0.5094  -0.4543
    -0.4525  -0.4141  -0.2531  -0.1882  -0.1879  -0.1570   0.1311   0.1312
     0.4603   0.4621   0.5601   0.5601   0.6010   0.6019   0.7445   0.7450
     0.8687   0.8706   0.9563   1.5562   1.5741   1.5750   1.6138   1.6197
     1.6606   1.6660   1.7442   1.7447   1.9518   1.9520   2.1853   2.2660
     2.2680   2.2828   2.6606   2.6655   2.7375   2.7383   2.7444   2.7449
     2.8961   2.8970   2.9406   3.0393   3.0406   3.2717   3.2743   3.4066
     3.4337   3.4341   3.7044   3.7053   3.8175   3.8371   3.8371   3.8829
     3.9180   4.0237   4.0248   4.2608   4.2618   4.3461   4.3501   4.4740
     4.4776   4.4931   4.5003   4.6006   4.7796   5.2954   5.3017   5.4044
     5.4063   5.4515   5.5853   5.5860   5.6403   5.6765   5.6999   5.7033
     5.7350   5.7544   5.7548   5.7981   5.9460   6.0111   6.0472   6.0674
     6.0829   6.0928   6.0973   6.1062   6.1077   6.1506   6.1668   6.2463

     the Fermi energy is     0.8191 ev

!    total energy              =   -7425.28739267 Ry
     Harris-Foulkes estimate   =   -7425.28739265 Ry
     estimated scf accuracy    <          8.3E-09 Ry

     The total energy is the sum of the following terms:

     one-electron contribution =  -48264.95621923 Ry
     hartree contribution      =   24682.02173783 Ry
     xc contribution           =   -3604.19327194 Ry
     ewald contribution        =   19761.84330430 Ry
     smearing contrib. (-TS)   =      -0.00294363 Ry

     convergence has been achieved in  28 iterations

     Writing output data file 2903814.save

     init_run     :    105.40s CPU    111.95s WALL (       1 calls)
     electrons    :   6472.60s CPU   6860.37s WALL (       1 calls)

     Called by init_run:
     wfcinit      :     81.40s CPU     87.30s WALL (       1 calls)
     potinit      :      6.42s CPU      6.80s WALL (       1 calls)

     Called by electrons:
     c_bands      :   5458.14s CPU   5767.08s WALL (      29 calls)
     sum_band     :    708.38s CPU    771.78s WALL (      29 calls)
     v_of_rho     :     83.82s CPU     94.47s WALL (      29 calls)
     newd         :    228.91s CPU    233.08s WALL (      29 calls)
     mix_rho      :      2.35s CPU      2.73s WALL (      29 calls)
     vdW_energy   :     12.23s CPU     13.05s WALL (      29 calls)
     vdW_ffts     :     36.98s CPU     42.19s WALL (      58 calls)
     vdW_v        :      9.56s CPU     10.44s WALL (      29 calls)

     Called by c_bands:
     init_us_2    :     10.34s CPU     10.59s WALL (     354 calls)
     cegterg      :   5398.71s CPU   5704.50s WALL (     174 calls)

     Called by *egterg:
     h_psi        :   2106.84s CPU   2369.36s WALL (     835 calls)
     s_psi        :    386.12s CPU    388.31s WALL (     835 calls)
     g_psi        :      4.78s CPU      4.78s WALL (     655 calls)
     cdiaghg      :   1690.16s CPU   1695.33s WALL (     823 calls)

     Called by h_psi:
     add_vuspsi   :    388.42s CPU    390.58s WALL (     835 calls)

     General routines
     calbec       :    553.30s CPU    555.30s WALL (    1009 calls)
     fft          :     74.30s CPU     83.88s WALL (    1914 calls)
     ffts         :      1.02s CPU      1.21s WALL (      58 calls)
     fftw         :   1434.25s CPU   1716.37s WALL (  463426 calls)
     interpolate  :      2.88s CPU      3.54s WALL (      58 calls)
     davcio       :      0.00s CPU      0.16s WALL (       6 calls)

     Parallel routines
     fft_scatter  :    926.90s CPU   1122.61s WALL (  465398 calls)

     PWSCF        :     1h49m CPU        1h56m WALL


   This run was terminated on:   4:44:58   6Jul2015            

=------------------------------------------------------------------------------=
   JOB DONE.
=------------------------------------------------------------------------------=
