Setting SGE environment for SCC

     Program PWSCF v.5.1.2 starts on  3Jul2015 at  9:52:17 

     This program is part of the open-source Quantum ESPRESSO suite
     for quantum simulation of materials; please cite
         "P. Giannozzi et al., J. Phys.:Condens. Matter 21 395502 (2009);
          URL http://www.quantum-espresso.org", 
     in publications or presentations arising from this work. More details at
     http://www.quantum-espresso.org/quote

     Parallel version (MPI), running on    32 processors
     R & G space division:  proc/nbgrp/npool/nimage =      32
     Reading input from hollow.O1.Au5859.d.2.7.phi.0.psi.90.in
Warning: card &IONS ignored
Warning: card / ignored
Warning: card &CELL ignored
Warning: card / ignored

     Current dimensions of program PWSCF are:
     Max number of different atomic species (ntypx) = 10
     Max number of k-points (npk) =  40000
     Max angular momentum in pseudopotentials (lmaxx) =  3

     IMPORTANT: XC functional enforced from input :
     Exchange-correlation      = VDW-DF ( 1  4  4  0 1 0)
     Any further DFT definition will be discarded
     Please, verify this is what you really want


     Subspace diagonalization in iterative solution of the eigenvalue problem:
     a serial algorithm will be used


     Parallelization info
     --------------------
     sticks:   dense  smooth     PW     G-vecs:    dense   smooth      PW
     Min         578     289     74               118518    41891    5486
     Max         579     290     75               118533    41932    5497
     Sum       18505    9265   2385              3792731  1341081  175711


     Title: 
     hollow.O1.Au5859.d.2.7.phi.0.psi.90                                        


     bravais-lattice index     =            8
     lattice parameter (alat)  =      24.1233  a.u.
     unit-cell volume          =   28076.2361 (a.u.)^3
     number of atoms/cell      =           75
     number of atomic types    =            3
     number of electrons       =       800.00
     number of Kohn-Sham states=          480
     kinetic-energy cutoff     =      50.0000  Ry
     charge density cutoff     =     400.0000  Ry
     convergence threshold     =      1.0E-08
     mixing beta               =       0.7000
     number of iterations used =            8  plain     mixing
     Exchange-correlation      = VDW-DF ( 1  4  4  0 1 0)

     celldm(1)=  24.123277  celldm(2)=   1.000000  celldm(3)=   2.000000
     celldm(4)=   0.000000  celldm(5)=   0.000000  celldm(6)=   0.000000

     crystal axes: (cart. coord. in units of alat)
               a(1) = (   1.000000   0.000000   0.000000 )  
               a(2) = (   0.000000   1.000000   0.000000 )  
               a(3) = (   0.000000   0.000000   2.000000 )  

     reciprocal axes: (cart. coord. in units 2 pi/alat)
               b(1) = (  1.000000  0.000000  0.000000 )  
               b(2) = (  0.000000  1.000000  0.000000 )  
               b(3) = (  0.000000  0.000000  0.500000 )  


     PseudoPot. # 1 for Au read from file:
     /home/scc/andrejb/qe/pseudo/Au.pbe-nd-van.UPF
     MD5 check sum: 458681b50f36d87ef23c61b04bba420a
     Pseudo is Ultrasoft + core correction, Zval = 11.0
     Generated by new atomic code, or converted to UPF format
     Using radial grid of  985 points,  3 beta functions with: 
                l(1) =   1
                l(2) =   2
                l(3) =   2
     Q(r) pseudized with  8 coefficients,  rinner =    1.100   1.100   1.100
                                                       1.100   1.100

     PseudoPot. # 2 for H  read from file:
     /home/scc/andrejb/qe/pseudo/H.pbe-van_ak.UPF
     MD5 check sum: 403db7282739603aa925980fa9b8608d
     Pseudo is Ultrasoft, Zval =  1.0
     Generated by new atomic code, or converted to UPF format
     Using radial grid of  615 points,  1 beta functions with: 
                l(1) =   0
     Q(r) pseudized with  8 coefficients,  rinner =    0.800

     PseudoPot. # 3 for O  read from file:
     /home/scc/andrejb/qe/pseudo/O.pbe-van_ak.UPF
     MD5 check sum: 4b8c549914a63cae506c6ff22b5af4fe
     Pseudo is Ultrasoft, Zval =  6.0
     Generated by new atomic code, or converted to UPF format
     Using radial grid of  737 points,  4 beta functions with: 
                l(1) =   0
                l(2) =   0
                l(3) =   1
                l(4) =   1
     Q(r) pseudized with  8 coefficients,  rinner =    0.800   0.800   0.800


     vdW kernel table read from file vdW_kernel_table
     MD5 check sum: 48e77a2e26edf626eeb0eaa751ad5cac

     atomic species   valence    mass     pseudopotential
        Au            11.00   196.96657     Au( 1.00)
        H              1.00     1.01000     H ( 1.00)
        O              6.00    16.00000     O ( 1.00)

     No symmetry found



   Cartesian axes

     site n.     atom                  positions (alat units)
         1           O   tau(   1) = (   0.1666051   0.1666105   0.9066623  )
         2           H   tau(   2) = (   0.1195275   0.1211166   0.8674908  )
         3           H   tau(   3) = (   0.2122554   0.1187528   0.9446640  )
         4           Au  tau(   4) = (   0.0000000   0.0000000   0.0000000  )
         5           Au  tau(   5) = (   0.3332217   0.0000000   0.0000000  )
         6           Au  tau(   6) = (   0.6664434   0.0000000   0.0000000  )
         7           Au  tau(   7) = (   0.1666109   0.1666109   0.0000000  )
         8           Au  tau(   8) = (   0.4998326   0.1666109   0.0000000  )
         9           Au  tau(   9) = (   0.8330542   0.1666109   0.0000000  )
        10           Au  tau(  10) = (   0.0000000   0.3332217   0.0000000  )
        11           Au  tau(  11) = (   0.3332217   0.3332217   0.0000000  )
        12           Au  tau(  12) = (   0.6664434   0.3332217   0.0000000  )
        13           Au  tau(  13) = (   0.1666109   0.4998326   0.0000000  )
        14           Au  tau(  14) = (   0.4998326   0.4998326   0.0000000  )
        15           Au  tau(  15) = (   0.8330542   0.4998326   0.0000000  )
        16           Au  tau(  16) = (   0.0000000   0.6664434   0.0000000  )
        17           Au  tau(  17) = (   0.3332217   0.6664434   0.0000000  )
        18           Au  tau(  18) = (   0.6664434   0.6664434   0.0000000  )
        19           Au  tau(  19) = (   0.1666109   0.8330542   0.0000000  )
        20           Au  tau(  20) = (   0.4998326   0.8330542   0.0000000  )
        21           Au  tau(  21) = (   0.8330542   0.8330542   0.0000000  )
        22           Au  tau(  22) = (   0.1666109   0.0000000   0.1666109  )
        23           Au  tau(  23) = (   0.4998326   0.0000000   0.1666109  )
        24           Au  tau(  24) = (   0.8330542   0.0000000   0.1666109  )
        25           Au  tau(  25) = (   0.0000000   0.1666109   0.1666109  )
        26           Au  tau(  26) = (   0.3332217   0.1666109   0.1666109  )
        27           Au  tau(  27) = (   0.6664434   0.1666109   0.1666109  )
        28           Au  tau(  28) = (   0.1666109   0.3332217   0.1666109  )
        29           Au  tau(  29) = (   0.4998326   0.3332217   0.1666109  )
        30           Au  tau(  30) = (   0.8330542   0.3332217   0.1666109  )
        31           Au  tau(  31) = (   0.0000000   0.4998326   0.1666109  )
        32           Au  tau(  32) = (   0.3332217   0.4998326   0.1666109  )
        33           Au  tau(  33) = (   0.6664434   0.4998326   0.1666109  )
        34           Au  tau(  34) = (   0.1666109   0.6664434   0.1666109  )
        35           Au  tau(  35) = (   0.4998326   0.6664434   0.1666109  )
        36           Au  tau(  36) = (   0.8330542   0.6664434   0.1666109  )
        37           Au  tau(  37) = (   0.0000000   0.8330542   0.1666109  )
        38           Au  tau(  38) = (   0.3332217   0.8330542   0.1666109  )
        39           Au  tau(  39) = (   0.6664434   0.8330542   0.1666109  )
        40           Au  tau(  40) = (  -0.0000182  -0.0000182   0.3335478  )
        41           Au  tau(  41) = (   0.3332215  -0.0000181   0.3335473  )
        42           Au  tau(  42) = (   0.6664447  -0.0000183   0.3335481  )
        43           Au  tau(  43) = (  -0.0000181   0.3332215   0.3335473  )
        44           Au  tau(  44) = (   0.3332215   0.3332215   0.3335468  )
        45           Au  tau(  45) = (   0.6664445   0.3332215   0.3335477  )
        46           Au  tau(  46) = (  -0.0000183   0.6664447   0.3335481  )
        47           Au  tau(  47) = (   0.3332215   0.6664445   0.3335477  )
        48           Au  tau(  48) = (   0.6664446   0.6664446   0.3335486  )
        49           Au  tau(  49) = (   0.1666097   0.1666097   0.3335483  )
        50           Au  tau(  50) = (   0.4998320   0.1666098   0.3335477  )
        51           Au  tau(  51) = (   0.8330732   0.1666096   0.3335480  )
        52           Au  tau(  52) = (   0.1666098   0.4998320   0.3335477  )
        53           Au  tau(  53) = (   0.4998322   0.4998322   0.3335470  )
        54           Au  tau(  54) = (   0.8330731   0.4998322   0.3335474  )
        55           Au  tau(  55) = (   0.1666096   0.8330732   0.3335480  )
        56           Au  tau(  56) = (   0.4998322   0.8330731   0.3335474  )
        57           Au  tau(  57) = (   0.8330731   0.8330731   0.3335478  )
        58           Au  tau(  58) = (   0.1666104  -0.0000111   0.4993095  )
        59           Au  tau(  59) = (   0.4998323  -0.0000112   0.4993099  )
        60           Au  tau(  60) = (   0.8330660  -0.0000111   0.4993009  )
        61           Au  tau(  61) = (  -0.0000111   0.1666104   0.4993095  )
        62           Au  tau(  62) = (   0.3332213   0.1666106   0.4993185  )
        63           Au  tau(  63) = (   0.6664437   0.1666106   0.4993187  )
        64           Au  tau(  64) = (   0.1666106   0.3332213   0.4993185  )
        65           Au  tau(  65) = (   0.4998324   0.3332216   0.4993185  )
        66           Au  tau(  66) = (   0.8330658   0.3332215   0.4993102  )
        67           Au  tau(  67) = (  -0.0000112   0.4998323   0.4993099  )
        68           Au  tau(  68) = (   0.3332216   0.4998324   0.4993185  )
        69           Au  tau(  69) = (   0.6664437   0.4998325   0.4993187  )
        70           Au  tau(  70) = (   0.1666106   0.6664437   0.4993187  )
        71           Au  tau(  71) = (   0.4998325   0.6664437   0.4993187  )
        72           Au  tau(  72) = (   0.8330658   0.6664438   0.4993102  )
        73           Au  tau(  73) = (  -0.0000111   0.8330660   0.4993009  )
        74           Au  tau(  74) = (   0.3332215   0.8330658   0.4993102  )
        75           Au  tau(  75) = (   0.6664438   0.8330658   0.4993102  )

     number of k points=     6  Marzari-Vanderbilt smearing, width (Ry)=  0.0200
                       cart. coord. in units 2pi/alat
        k(    1) = (   0.2500000   0.2500000   0.0833333), wk =   0.3333333
        k(    2) = (   0.2500000   0.2500000  -0.2500000), wk =   0.3333333
        k(    3) = (  -0.2500000  -0.2500000   0.0833333), wk =   0.3333333
        k(    4) = (  -0.2500000   0.2500000  -0.0833333), wk =   0.3333333
        k(    5) = (   0.2500000  -0.2500000  -0.0833333), wk =   0.3333333
        k(    6) = (  -0.2500000   0.2500000   0.2500000), wk =   0.3333333

     Dense  grid:  3792731 G-vectors     FFT dimensions: ( 160, 160, 320)

     Smooth grid:  1341081 G-vectors     FFT dimensions: ( 120, 120, 225)

     Largest allocated arrays     est. size (Mb)     dimensions
        Kohn-Sham Wavefunctions        38.58 Mb     (    5267,  480)
        NL pseudopotentials            76.03 Mb     (    5267,  946)
        Each V/rho on FFT grid          3.91 Mb     (  256000)
        Each G-vector array             0.90 Mb     (  118520)
        G-vector shells                 0.08 Mb     (   10286)
     Largest temporary arrays     est. size (Mb)     dimensions
        Auxiliary wavefunctions       154.31 Mb     (    5267, 1920)
        Each subspace H/S matrix       56.25 Mb     (    1920, 1920)
        Each <psi_i|beta_j> matrix      6.93 Mb     (     946,  480)
        Arrays for rho mixing          31.25 Mb     (  256000,    8)

     Initial potential from superposition of free atoms
     Check: negative starting charge=   -1.944740

     starting charge  799.16392, renormalised to  800.00000

     negative rho (up, down):  1.947E+00 0.000E+00


     ************************************************************************
     *
     * You are using vdW-DF for exchange-correlation in this calculation.
     * Please cite the following three references that made this development
     * possible:
     *
     *   M. Dion, H. Rydberg, E. Schroder, D. C. Langreth, and
     *   B. I. Lundqvist, Phys. Rev. Lett. 92, 246401 (2004).
     *
     *   T. Thonhauser, V. R. Cooper, S. Li, A. Puzder, P. Hyldgaard, and
     *   D. C. Langreth, Phys. Rev. B 76, 125112 (2007).
     *
     *   G. Roman-Perez and J. M. Soler, Phys. Rev. Lett. 103, 096102 (2009).
     *
     *
     * If you are using vdW-DF2, please also cite:
     *
     *   K. Lee, E. D. Murray, L. Kong, B. I. Lundqvist, and
     *   D. C. Langreth, Phys. Rev. B 82, 081101(R) (2010).
     *
     *
     * If you are calculating the stress with vdW-DF, please also cite:
     *
     *   R. Sabatini, E. Kucukbenli, B. Kolb, T. Thonhauser, and
     *   S. de Gironcoli, J. Phys.: Condens. Matter 24, 424209 (2012).
     *
     ************************************************************************

     Carrying out vdW-DF run using the following parameters:

     Nqs =      20    Nr_points =    1024   r_max =   100.000
     q_mesh =
               0.00001000     0.04494208     0.09755937     0.15916263
               0.23128650     0.31572767     0.41458969     0.53033537
               0.66584808     0.82450364     1.01025438     1.22772762
               1.48234092     1.78043706     2.12944203     2.53805004
               3.01644009     3.57652955     4.23227104     5.00000000

     Gradients computed in reciprocal space

     ************************************************************************


     Starting wfc are  654 randomized atomic wfcs

     total cpu time spent up to now is      179.2 secs

     Self-consistent Calculation

     iteration #  1     ecut=    50.00 Ry     beta=0.70
     Davidson diagonalization with overlap
     ethr =  1.00E-02,  avg # of iterations =  3.0

     Threshold (ethr) on eigenvalues was too large:
     Diagonalizing with lowered threshold

     Davidson diagonalization with overlap
     ethr =  4.30E-04,  avg # of iterations =  2.5

     negative rho (up, down):  1.948E+00 0.000E+00

     total cpu time spent up to now is      836.3 secs

     total energy              =   -7422.99715757 Ry
     Harris-Foulkes estimate   =   -7426.08679473 Ry
     estimated scf accuracy    <       3.81067847 Ry

     iteration #  2     ecut=    50.00 Ry     beta=0.70
     Davidson diagonalization with overlap
     ethr =  4.76E-04,  avg # of iterations = 11.2

     negative rho (up, down):  1.942E+00 0.000E+00

     total cpu time spent up to now is     1784.9 secs

     total energy              =   -7414.79781005 Ry
     Harris-Foulkes estimate   =   -7432.74451806 Ry
     estimated scf accuracy    <      94.18307753 Ry

     iteration #  3     ecut=    50.00 Ry     beta=0.70
     Davidson diagonalization with overlap
     ethr =  4.76E-04,  avg # of iterations =  6.0

     negative rho (up, down):  1.953E+00 0.000E+00

     total cpu time spent up to now is     2442.7 secs

     total energy              =   -7424.03853786 Ry
     Harris-Foulkes estimate   =   -7425.92460850 Ry
     estimated scf accuracy    <       8.12833842 Ry

     iteration #  4     ecut=    50.00 Ry     beta=0.70
     Davidson diagonalization with overlap
     ethr =  4.76E-04,  avg # of iterations =  6.5

     negative rho (up, down):  1.955E+00 0.000E+00

     total cpu time spent up to now is     2819.2 secs

     total energy              =   -7424.82026433 Ry
     Harris-Foulkes estimate   =   -7425.64391586 Ry
     estimated scf accuracy    <       4.32943989 Ry

     iteration #  5     ecut=    50.00 Ry     beta=0.70
     Davidson diagonalization with overlap
     ethr =  4.76E-04,  avg # of iterations =  5.3

     negative rho (up, down):  1.963E+00 0.000E+00

     total cpu time spent up to now is     3173.4 secs

     total energy              =   -7425.06061396 Ry
     Harris-Foulkes estimate   =   -7425.59796921 Ry
     estimated scf accuracy    <       4.31563868 Ry

     iteration #  6     ecut=    50.00 Ry     beta=0.70
     Davidson diagonalization with overlap
     ethr =  4.76E-04,  avg # of iterations =  2.0

     negative rho (up, down):  1.968E+00 0.000E+00

     total cpu time spent up to now is     3486.6 secs

     total energy              =   -7425.28582576 Ry
     Harris-Foulkes estimate   =   -7425.32036072 Ry
     estimated scf accuracy    <       0.10834317 Ry

     iteration #  7     ecut=    50.00 Ry     beta=0.70
     Davidson diagonalization with overlap
     ethr =  1.35E-05,  avg # of iterations =  8.5

     negative rho (up, down):  1.970E+00 0.000E+00

     total cpu time spent up to now is     3981.6 secs

     total energy              =   -7425.27665244 Ry
     Harris-Foulkes estimate   =   -7425.32191311 Ry
     estimated scf accuracy    <       0.23817534 Ry

     iteration #  8     ecut=    50.00 Ry     beta=0.70
     Davidson diagonalization with overlap
     ethr =  1.35E-05,  avg # of iterations =  3.8

     negative rho (up, down):  1.972E+00 0.000E+00

     total cpu time spent up to now is     4342.6 secs

     total energy              =   -7425.28844524 Ry
     Harris-Foulkes estimate   =   -7425.30254168 Ry
     estimated scf accuracy    <       0.05294306 Ry

     iteration #  9     ecut=    50.00 Ry     beta=0.70
     Davidson diagonalization with overlap
     ethr =  6.62E-06,  avg # of iterations =  6.3

     negative rho (up, down):  1.972E+00 0.000E+00

     total cpu time spent up to now is     4740.0 secs

     total energy              =   -7425.28651046 Ry
     Harris-Foulkes estimate   =   -7425.29652251 Ry
     estimated scf accuracy    <       0.03580102 Ry

     iteration # 10     ecut=    50.00 Ry     beta=0.70
     Davidson diagonalization with overlap
     ethr =  4.48E-06,  avg # of iterations =  7.0

     negative rho (up, down):  1.974E+00 0.000E+00

     total cpu time spent up to now is     5143.1 secs

     total energy              =   -7425.28780033 Ry
     Harris-Foulkes estimate   =   -7425.29093261 Ry
     estimated scf accuracy    <       0.00993022 Ry

     iteration # 11     ecut=    50.00 Ry     beta=0.70
     Davidson diagonalization with overlap
     ethr =  1.24E-06,  avg # of iterations =  6.5

     negative rho (up, down):  1.974E+00 0.000E+00

     total cpu time spent up to now is     5517.0 secs

     total energy              =   -7425.28779156 Ry
     Harris-Foulkes estimate   =   -7425.28910966 Ry
     estimated scf accuracy    <       0.00542371 Ry

     iteration # 12     ecut=    50.00 Ry     beta=0.70
     Davidson diagonalization with overlap
     ethr =  6.78E-07,  avg # of iterations =  1.3

     negative rho (up, down):  1.975E+00 0.000E+00

     total cpu time spent up to now is     5830.4 secs

     total energy              =   -7425.28674988 Ry
     Harris-Foulkes estimate   =   -7425.28821492 Ry
     estimated scf accuracy    <       0.00204268 Ry

     iteration # 13     ecut=    50.00 Ry     beta=0.70
     Davidson diagonalization with overlap
     ethr =  2.55E-07,  avg # of iterations = 10.8

     negative rho (up, down):  1.975E+00 0.000E+00

     total cpu time spent up to now is     6304.6 secs

     total energy              =   -7425.28666915 Ry
     Harris-Foulkes estimate   =   -7425.28754187 Ry
     estimated scf accuracy    <       0.00327513 Ry

     iteration # 14     ecut=    50.00 Ry     beta=0.70
     Davidson diagonalization with overlap
     ethr =  2.55E-07,  avg # of iterations =  2.5

     negative rho (up, down):  1.975E+00 0.000E+00

     total cpu time spent up to now is     6651.7 secs

     total energy              =   -7425.28700181 Ry
     Harris-Foulkes estimate   =   -7425.28729098 Ry
     estimated scf accuracy    <       0.00128854 Ry

     iteration # 15     ecut=    50.00 Ry     beta=0.70
     Davidson diagonalization with overlap
     ethr =  1.61E-07,  avg # of iterations =  2.0

     negative rho (up, down):  1.974E+00 0.000E+00

     total cpu time spent up to now is     6961.6 secs

     total energy              =   -7425.28709825 Ry
     Harris-Foulkes estimate   =   -7425.28723180 Ry
     estimated scf accuracy    <       0.00052755 Ry

     iteration # 16     ecut=    50.00 Ry     beta=0.70
     Davidson diagonalization with overlap
     ethr =  6.59E-08,  avg # of iterations =  2.0

     negative rho (up, down):  1.974E+00 0.000E+00

     total cpu time spent up to now is     7278.4 secs

     total energy              =   -7425.28710975 Ry
     Harris-Foulkes estimate   =   -7425.28723327 Ry
     estimated scf accuracy    <       0.00096799 Ry

     iteration # 17     ecut=    50.00 Ry     beta=0.70
     Davidson diagonalization with overlap
     ethr =  6.59E-08,  avg # of iterations =  1.0

     negative rho (up, down):  1.974E+00 0.000E+00

     total cpu time spent up to now is     7592.9 secs

     total energy              =   -7425.28716994 Ry
     Harris-Foulkes estimate   =   -7425.28718663 Ry
     estimated scf accuracy    <       0.00007098 Ry

     iteration # 18     ecut=    50.00 Ry     beta=0.70
     Davidson diagonalization with overlap
     ethr =  8.87E-09,  avg # of iterations =  2.0

     negative rho (up, down):  1.974E+00 0.000E+00

     total cpu time spent up to now is     7892.6 secs

     total energy              =   -7425.28717700 Ry
     Harris-Foulkes estimate   =   -7425.28718102 Ry
     estimated scf accuracy    <       0.00001466 Ry

     iteration # 19     ecut=    50.00 Ry     beta=0.70
     Davidson diagonalization with overlap
     ethr =  1.83E-09,  avg # of iterations =  3.0

     negative rho (up, down):  1.974E+00 0.000E+00

     total cpu time spent up to now is     8252.8 secs

     total energy              =   -7425.28717661 Ry
     Harris-Foulkes estimate   =   -7425.28718293 Ry
     estimated scf accuracy    <       0.00003250 Ry

     iteration # 20     ecut=    50.00 Ry     beta=0.70
     Davidson diagonalization with overlap
     ethr =  1.83E-09,  avg # of iterations =  2.0

     negative rho (up, down):  1.974E+00 0.000E+00

     total cpu time spent up to now is     8564.5 secs

     total energy              =   -7425.28717996 Ry
     Harris-Foulkes estimate   =   -7425.28718033 Ry
     estimated scf accuracy    <       0.00000216 Ry

     iteration # 21     ecut=    50.00 Ry     beta=0.70
     Davidson diagonalization with overlap
     ethr =  2.70E-10,  avg # of iterations =  2.0

     negative rho (up, down):  1.974E+00 0.000E+00

     total cpu time spent up to now is     8906.0 secs

     total energy              =   -7425.28718037 Ry
     Harris-Foulkes estimate   =   -7425.28718042 Ry
     estimated scf accuracy    <       0.00000055 Ry

     iteration # 22     ecut=    50.00 Ry     beta=0.70
     Davidson diagonalization with overlap
     ethr =  6.94E-11,  avg # of iterations =  3.0

     negative rho (up, down):  1.974E+00 0.000E+00

     total cpu time spent up to now is     9289.8 secs

     total energy              =   -7425.28718044 Ry
     Harris-Foulkes estimate   =   -7425.28718061 Ry
     estimated scf accuracy    <       0.00000087 Ry

     iteration # 23     ecut=    50.00 Ry     beta=0.70
     Davidson diagonalization with overlap
     ethr =  6.94E-11,  avg # of iterations =  3.0

     negative rho (up, down):  1.974E+00 0.000E+00

     total cpu time spent up to now is     9628.0 secs

     total energy              =   -7425.28718054 Ry
     Harris-Foulkes estimate   =   -7425.28718056 Ry
     estimated scf accuracy    <       0.00000014 Ry

     iteration # 24     ecut=    50.00 Ry     beta=0.70
     Davidson diagonalization with overlap
     ethr =  1.73E-11,  avg # of iterations =  2.5

     negative rho (up, down):  1.974E+00 0.000E+00

     total cpu time spent up to now is     9900.9 secs

     total energy              =   -7425.28718057 Ry
     Harris-Foulkes estimate   =   -7425.28718059 Ry
     estimated scf accuracy    <       0.00000026 Ry

     iteration # 25     ecut=    50.00 Ry     beta=0.70
     Davidson diagonalization with overlap
     ethr =  1.73E-11,  avg # of iterations =  2.0

     negative rho (up, down):  1.974E+00 0.000E+00

     total cpu time spent up to now is    10125.0 secs

     total energy              =   -7425.28718061 Ry
     Harris-Foulkes estimate   =   -7425.28718060 Ry
     estimated scf accuracy    <       0.00000006 Ry

     iteration # 26     ecut=    50.00 Ry     beta=0.70
     Davidson diagonalization with overlap
     ethr =  6.88E-12,  avg # of iterations =  2.0

     negative rho (up, down):  1.974E+00 0.000E+00

     total cpu time spent up to now is    10354.5 secs

     total energy              =   -7425.28718062 Ry
     Harris-Foulkes estimate   =   -7425.28718062 Ry
     estimated scf accuracy    <       0.00000012 Ry

     iteration # 27     ecut=    50.00 Ry     beta=0.70
     Davidson diagonalization with overlap
     ethr =  6.88E-12,  avg # of iterations =  2.0

     negative rho (up, down):  1.974E+00 0.000E+00

     total cpu time spent up to now is    10577.1 secs

     total energy              =   -7425.28718063 Ry
     Harris-Foulkes estimate   =   -7425.28718063 Ry
     estimated scf accuracy    <       0.00000004 Ry

     iteration # 28     ecut=    50.00 Ry     beta=0.70
     Davidson diagonalization with overlap
     ethr =  4.78E-12,  avg # of iterations =  2.0

     negative rho (up, down):  1.974E+00 0.000E+00

     total cpu time spent up to now is    10782.6 secs

     total energy              =   -7425.28718064 Ry
     Harris-Foulkes estimate   =   -7425.28718063 Ry
     estimated scf accuracy    <       0.00000001 Ry

     iteration # 29     ecut=    50.00 Ry     beta=0.70
     Davidson diagonalization with overlap
     ethr =  1.55E-12,  avg # of iterations =  2.0

     negative rho (up, down):  1.974E+00 0.000E+00

     total cpu time spent up to now is    10999.1 secs

     End of self-consistent calculation

          k = 0.2500 0.2500 0.0833 (167653 PWs)   bands (ev):

   -19.2956  -7.1102  -6.8366  -6.3080  -6.3079  -5.8784  -5.4693  -5.3761
    -5.3760  -5.1801  -5.1801  -5.0622  -5.0620  -4.9837  -4.9607  -4.8877
    -4.8028  -4.7990  -4.7601  -4.7601  -4.5991  -4.5825  -4.5813  -4.5812
    -4.5743  -4.5185  -4.5185  -4.5066  -4.5065  -4.4696  -4.4568  -4.4567
    -4.4148  -4.4148  -4.3813  -4.3801  -4.3280  -4.3279  -4.3170  -4.3161
    -4.3107  -4.2975  -4.2975  -4.2561  -4.2381  -4.2381  -4.2311  -4.2311
    -4.1988  -4.1490  -4.1339  -4.1338  -4.1298  -4.1297  -4.1221  -4.1165
    -4.1160  -4.1160  -4.0508  -4.0506  -4.0010  -4.0008  -3.9885  -3.9624
    -3.9624  -3.9424  -3.9401  -3.9395  -3.9351  -3.9322  -3.8833  -3.8833
    -3.8701  -3.8701  -3.7648  -3.7647  -3.7586  -3.7585  -3.7212  -3.7117
    -3.6979  -3.6679  -3.6679  -3.6392  -3.6392  -3.6174  -3.6173  -3.6036
    -3.6035  -3.5487  -3.5487  -3.5301  -3.5147  -3.5031  -3.5017  -3.5016
    -3.5001  -3.4730  -3.4730  -3.4366  -3.4366  -3.4139  -3.4138  -3.3809
    -3.3808  -3.3625  -3.3351  -3.3351  -3.3170  -3.2977  -3.2976  -3.2622
    -3.2548  -3.2540  -3.2399  -3.2399  -3.2348  -3.2348  -3.1959  -3.1861
    -3.1452  -3.1452  -3.1374  -3.1278  -3.1271  -3.1257  -3.1013  -3.1013
    -3.0800  -3.0795  -3.0793  -3.0524  -3.0524  -3.0449  -3.0420  -3.0420
    -3.0060  -3.0015  -2.9662  -2.9661  -2.9653  -2.9623  -2.9623  -2.8833
    -2.8732  -2.8687  -2.8686  -2.8671  -2.8670  -2.8620  -2.8620  -2.8618
    -2.8616  -2.8521  -2.8443  -2.8271  -2.8245  -2.8238  -2.8237  -2.8090
    -2.8043  -2.7662  -2.7655  -2.7653  -2.7611  -2.7610  -2.7427  -2.7427
    -2.7337  -2.7337  -2.7315  -2.6718  -2.6718  -2.6664  -2.6664  -2.6613
    -2.6613  -2.6331  -2.5740  -2.5728  -2.5724  -2.5707  -2.5593  -2.5570
    -2.5523  -2.5412  -2.5411  -2.5041  -2.5040  -2.4950  -2.4949  -2.4942
    -2.4941  -2.4545  -2.4544  -2.4445  -2.4445  -2.4429  -2.4428  -2.4009
    -2.3849  -2.3794  -2.3259  -2.3259  -2.3072  -2.3056  -2.3004  -2.3004
    -2.2516  -2.2514  -2.2280  -2.2115  -2.1973  -2.1966  -2.1965  -2.1745
    -2.1744  -2.1647  -2.1482  -2.1068  -2.1067  -2.0929  -2.0929  -2.0928
    -2.0815  -2.0814  -2.0659  -2.0659  -2.0650  -2.0615  -2.0565  -2.0562
    -2.0561  -2.0437  -2.0436  -2.0258  -2.0257  -2.0236  -2.0175  -2.0145
    -2.0144  -1.9905  -1.9904  -1.9791  -1.9770  -1.9725  -1.9724  -1.9340
    -1.9000  -1.8999  -1.8645  -1.8471  -1.8471  -1.8362  -1.8361  -1.8126
    -1.8125  -1.7977  -1.7976  -1.7961  -1.7960  -1.7928  -1.7927  -1.7603
    -1.7602  -1.7602  -1.7139  -1.7138  -1.6739  -1.6738  -1.6266  -1.6265
    -1.6142  -1.5917  -1.5864  -1.5841  -1.5674  -1.5658  -1.5483  -1.5482
    -1.5433  -1.5431  -1.5415  -1.5413  -1.5407  -1.5382  -1.5181  -1.5180
    -1.5077  -1.4901  -1.4711  -1.4711  -1.4447  -1.4447  -1.4417  -1.4416
    -1.4385  -1.4356  -1.4139  -1.4136  -1.3988  -1.3985  -1.3859  -1.3754
    -1.3618  -1.3617  -1.3307  -1.3306  -1.3231  -1.3225  -1.2974  -1.2869
    -1.2863  -1.2785  -1.2784  -1.2697  -1.2696  -1.2480  -1.2479  -1.2359
    -1.2292  -1.2291  -1.2157  -1.2156  -1.2151  -1.2150  -1.2006  -1.1902
    -1.1894  -1.1822  -1.1821  -1.1701  -1.1653  -1.1653  -1.1585  -1.1193
    -1.1170  -1.1118  -1.1103  -1.1097  -1.1082  -1.0698  -1.0530  -1.0529
    -1.0523  -1.0523  -1.0477  -1.0476  -1.0427  -1.0297  -1.0276  -0.9908
    -0.9907  -0.9836  -0.9836  -0.9606  -0.9606  -0.9507  -0.9209  -0.9133
    -0.8858  -0.8858  -0.8578  -0.8577  -0.8550  -0.8538  -0.8532  -0.8492
    -0.8457  -0.8437  -0.8390  -0.8389  -0.8069  -0.8068  -0.7886  -0.7884
    -0.7831  -0.7831  -0.7816  -0.7816  -0.7627  -0.4857  -0.4771  -0.4208
    -0.4204  -0.3813  -0.2204  -0.1553  -0.1552  -0.1242   0.1639   0.1639
     0.4938   0.4942   0.5929   0.5929   0.6341   0.6344   0.7775   0.7775
     0.9016   0.9032   0.9892   1.5889   1.6069   1.6077   1.6470   1.6521
     1.6955   1.6969   1.7771   1.7772   1.9846   1.9847   2.2181   2.2994
     2.3000   2.3155   2.6953   2.6967   2.7701   2.7712   2.7774   2.7775
     2.9289   2.9297   2.9740   3.0725   3.0728   3.3035   3.3079   3.4393
     3.4666   3.4667   3.7376   3.7379   3.8497   3.8698   3.8698   3.9225
     3.9448   4.0569   4.0572   4.2939   4.2942   4.3802   4.3823   4.5066
     4.5105   4.5249   4.5312   4.6009   4.7531   5.3208   5.3285   5.4362
     5.4376   5.4577   5.6019   5.6183   5.6190   5.6847   5.6944   5.7333
     5.7346   5.7874   5.7875   5.8312   5.9280   6.0212   6.0798   6.0988
     6.1076   6.1149   6.1282   6.1290   6.1384   6.1518   6.1829   6.1993

          k = 0.2500 0.2500-0.2500 (167588 PWs)   bands (ev):

   -19.2956  -7.1102  -6.8366  -6.3080  -6.3079  -5.8784  -5.4693  -5.3761
    -5.3760  -5.1801  -5.1801  -5.0621  -5.0620  -4.9837  -4.9607  -4.8877
    -4.8028  -4.7990  -4.7601  -4.7600  -4.5991  -4.5825  -4.5813  -4.5812
    -4.5743  -4.5185  -4.5185  -4.5066  -4.5065  -4.4696  -4.4568  -4.4567
    -4.4148  -4.4147  -4.3813  -4.3801  -4.3280  -4.3279  -4.3170  -4.3161
    -4.3107  -4.2975  -4.2975  -4.2562  -4.2381  -4.2381  -4.2311  -4.2311
    -4.1988  -4.1490  -4.1339  -4.1338  -4.1298  -4.1297  -4.1221  -4.1165
    -4.1160  -4.1160  -4.0508  -4.0506  -4.0010  -4.0008  -3.9885  -3.9624
    -3.9624  -3.9424  -3.9400  -3.9395  -3.9351  -3.9322  -3.8833  -3.8833
    -3.8701  -3.8701  -3.7648  -3.7647  -3.7586  -3.7585  -3.7212  -3.7117
    -3.6979  -3.6679  -3.6679  -3.6392  -3.6392  -3.6174  -3.6173  -3.6036
    -3.6035  -3.5487  -3.5487  -3.5301  -3.5147  -3.5031  -3.5017  -3.5016
    -3.5001  -3.4730  -3.4730  -3.4366  -3.4366  -3.4139  -3.4138  -3.3809
    -3.3808  -3.3625  -3.3351  -3.3351  -3.3170  -3.2977  -3.2976  -3.2622
    -3.2548  -3.2540  -3.2399  -3.2399  -3.2348  -3.2348  -3.1959  -3.1861
    -3.1452  -3.1452  -3.1373  -3.1278  -3.1271  -3.1257  -3.1013  -3.1013
    -3.0800  -3.0795  -3.0793  -3.0524  -3.0524  -3.0448  -3.0420  -3.0420
    -3.0060  -3.0015  -2.9662  -2.9661  -2.9653  -2.9623  -2.9623  -2.8833
    -2.8732  -2.8687  -2.8686  -2.8671  -2.8670  -2.8620  -2.8620  -2.8618
    -2.8616  -2.8521  -2.8443  -2.8271  -2.8245  -2.8238  -2.8237  -2.8089
    -2.8043  -2.7662  -2.7655  -2.7652  -2.7611  -2.7610  -2.7427  -2.7427
    -2.7337  -2.7337  -2.7315  -2.6718  -2.6718  -2.6664  -2.6664  -2.6613
    -2.6613  -2.6331  -2.5740  -2.5728  -2.5724  -2.5707  -2.5593  -2.5570
    -2.5523  -2.5412  -2.5411  -2.5041  -2.5040  -2.4950  -2.4949  -2.4942
    -2.4941  -2.4545  -2.4544  -2.4445  -2.4445  -2.4429  -2.4428  -2.4009
    -2.3849  -2.3794  -2.3259  -2.3259  -2.3072  -2.3057  -2.3004  -2.3004
    -2.2515  -2.2514  -2.2280  -2.2115  -2.1973  -2.1966  -2.1965  -2.1745
    -2.1744  -2.1647  -2.1482  -2.1068  -2.1067  -2.0929  -2.0929  -2.0928
    -2.0815  -2.0814  -2.0659  -2.0659  -2.0650  -2.0615  -2.0565  -2.0562
    -2.0561  -2.0437  -2.0436  -2.0258  -2.0257  -2.0236  -2.0175  -2.0145
    -2.0144  -1.9905  -1.9904  -1.9791  -1.9770  -1.9725  -1.9724  -1.9340
    -1.9000  -1.8999  -1.8645  -1.8471  -1.8471  -1.8362  -1.8360  -1.8126
    -1.8125  -1.7977  -1.7976  -1.7961  -1.7960  -1.7928  -1.7927  -1.7603
    -1.7602  -1.7602  -1.7139  -1.7138  -1.6739  -1.6738  -1.6266  -1.6265
    -1.6142  -1.5917  -1.5864  -1.5841  -1.5674  -1.5658  -1.5483  -1.5482
    -1.5433  -1.5431  -1.5415  -1.5413  -1.5407  -1.5382  -1.5181  -1.5180
    -1.5077  -1.4902  -1.4711  -1.4711  -1.4447  -1.4447  -1.4417  -1.4416
    -1.4385  -1.4356  -1.4139  -1.4136  -1.3988  -1.3985  -1.3859  -1.3754
    -1.3618  -1.3617  -1.3307  -1.3306  -1.3231  -1.3225  -1.2974  -1.2868
    -1.2863  -1.2785  -1.2784  -1.2697  -1.2696  -1.2480  -1.2479  -1.2359
    -1.2292  -1.2291  -1.2157  -1.2156  -1.2151  -1.2150  -1.2006  -1.1903
    -1.1894  -1.1822  -1.1821  -1.1701  -1.1653  -1.1653  -1.1585  -1.1193
    -1.1170  -1.1119  -1.1103  -1.1097  -1.1082  -1.0698  -1.0530  -1.0529
    -1.0523  -1.0523  -1.0477  -1.0476  -1.0427  -1.0297  -1.0276  -0.9908
    -0.9907  -0.9836  -0.9836  -0.9606  -0.9606  -0.9507  -0.9209  -0.9133
    -0.8858  -0.8858  -0.8578  -0.8577  -0.8550  -0.8538  -0.8532  -0.8492
    -0.8458  -0.8437  -0.8390  -0.8389  -0.8069  -0.8068  -0.7886  -0.7884
    -0.7831  -0.7831  -0.7816  -0.7816  -0.7627  -0.4857  -0.4771  -0.4208
    -0.4204  -0.3813  -0.2204  -0.1553  -0.1552  -0.1242   0.1639   0.1639
     0.4938   0.4942   0.5929   0.5929   0.6341   0.6344   0.7775   0.7776
     0.9016   0.9032   0.9892   1.5889   1.6069   1.6077   1.6470   1.6521
     1.6955   1.6969   1.7771   1.7772   1.9846   1.9847   2.2181   2.2994
     2.3000   2.3155   2.6953   2.6967   2.7701   2.7712   2.7774   2.7775
     2.9289   2.9297   2.9741   3.0725   3.0728   3.3035   3.3079   3.4393
     3.4666   3.4667   3.7376   3.7379   3.8497   3.8698   3.8698   3.9227
     3.9448   4.0569   4.0572   4.2939   4.2942   4.3802   4.3823   4.5066
     4.5105   4.5249   4.5312   4.6000   4.7510   5.3205   5.3279   5.4305
     5.4374   5.4470   5.6179   5.6184   5.6359   5.6758   5.7258   5.7331
     5.7350   5.7874   5.7875   5.8312   5.9416   6.0240   6.0649   6.0974
     6.1057   6.1149   6.1284   6.1290   6.1384   6.1572   6.1812   6.2294

          k =-0.2500-0.2500 0.0833 (167653 PWs)   bands (ev):

   -19.2956  -7.1102  -6.8366  -6.3080  -6.3079  -5.8784  -5.4693  -5.3761
    -5.3760  -5.1801  -5.1801  -5.0622  -5.0620  -4.9837  -4.9607  -4.8877
    -4.8028  -4.7990  -4.7601  -4.7601  -4.5991  -4.5825  -4.5813  -4.5812
    -4.5743  -4.5185  -4.5185  -4.5066  -4.5065  -4.4696  -4.4568  -4.4567
    -4.4148  -4.4148  -4.3813  -4.3801  -4.3280  -4.3279  -4.3170  -4.3161
    -4.3107  -4.2975  -4.2975  -4.2561  -4.2381  -4.2381  -4.2311  -4.2311
    -4.1988  -4.1490  -4.1339  -4.1338  -4.1298  -4.1297  -4.1221  -4.1165
    -4.1160  -4.1160  -4.0508  -4.0506  -4.0010  -4.0008  -3.9885  -3.9624
    -3.9624  -3.9424  -3.9401  -3.9395  -3.9351  -3.9322  -3.8833  -3.8833
    -3.8701  -3.8701  -3.7648  -3.7647  -3.7586  -3.7585  -3.7212  -3.7117
    -3.6979  -3.6679  -3.6679  -3.6392  -3.6392  -3.6174  -3.6173  -3.6036
    -3.6035  -3.5487  -3.5487  -3.5301  -3.5147  -3.5031  -3.5017  -3.5016
    -3.5001  -3.4730  -3.4730  -3.4366  -3.4366  -3.4139  -3.4138  -3.3809
    -3.3808  -3.3625  -3.3351  -3.3351  -3.3170  -3.2977  -3.2976  -3.2622
    -3.2548  -3.2540  -3.2399  -3.2399  -3.2348  -3.2348  -3.1959  -3.1861
    -3.1452  -3.1452  -3.1374  -3.1278  -3.1271  -3.1257  -3.1013  -3.1013
    -3.0800  -3.0795  -3.0793  -3.0524  -3.0524  -3.0449  -3.0420  -3.0420
    -3.0060  -3.0015  -2.9662  -2.9661  -2.9653  -2.9623  -2.9623  -2.8833
    -2.8732  -2.8687  -2.8686  -2.8671  -2.8670  -2.8620  -2.8620  -2.8618
    -2.8616  -2.8521  -2.8443  -2.8271  -2.8245  -2.8238  -2.8237  -2.8090
    -2.8043  -2.7662  -2.7655  -2.7653  -2.7611  -2.7610  -2.7427  -2.7427
    -2.7337  -2.7337  -2.7315  -2.6718  -2.6718  -2.6664  -2.6664  -2.6613
    -2.6613  -2.6331  -2.5740  -2.5728  -2.5724  -2.5707  -2.5593  -2.5570
    -2.5523  -2.5412  -2.5411  -2.5041  -2.5040  -2.4950  -2.4949  -2.4942
    -2.4941  -2.4545  -2.4544  -2.4445  -2.4445  -2.4429  -2.4428  -2.4009
    -2.3849  -2.3794  -2.3259  -2.3259  -2.3072  -2.3056  -2.3004  -2.3004
    -2.2516  -2.2514  -2.2280  -2.2115  -2.1973  -2.1966  -2.1965  -2.1745
    -2.1744  -2.1647  -2.1482  -2.1068  -2.1067  -2.0929  -2.0929  -2.0928
    -2.0815  -2.0814  -2.0659  -2.0659  -2.0650  -2.0615  -2.0565  -2.0562
    -2.0561  -2.0437  -2.0436  -2.0258  -2.0257  -2.0236  -2.0175  -2.0145
    -2.0144  -1.9905  -1.9904  -1.9791  -1.9770  -1.9725  -1.9724  -1.9340
    -1.9000  -1.8999  -1.8645  -1.8471  -1.8471  -1.8362  -1.8361  -1.8126
    -1.8125  -1.7977  -1.7976  -1.7961  -1.7960  -1.7928  -1.7927  -1.7603
    -1.7602  -1.7602  -1.7139  -1.7138  -1.6739  -1.6738  -1.6266  -1.6265
    -1.6142  -1.5917  -1.5864  -1.5841  -1.5674  -1.5658  -1.5483  -1.5482
    -1.5433  -1.5431  -1.5415  -1.5413  -1.5407  -1.5382  -1.5181  -1.5180
    -1.5077  -1.4901  -1.4711  -1.4711  -1.4447  -1.4447  -1.4417  -1.4416
    -1.4385  -1.4356  -1.4139  -1.4136  -1.3988  -1.3985  -1.3859  -1.3754
    -1.3618  -1.3617  -1.3307  -1.3306  -1.3231  -1.3225  -1.2974  -1.2869
    -1.2863  -1.2785  -1.2784  -1.2697  -1.2696  -1.2480  -1.2479  -1.2359
    -1.2292  -1.2291  -1.2157  -1.2156  -1.2151  -1.2150  -1.2006  -1.1902
    -1.1894  -1.1822  -1.1821  -1.1701  -1.1653  -1.1653  -1.1585  -1.1193
    -1.1170  -1.1118  -1.1103  -1.1097  -1.1082  -1.0698  -1.0530  -1.0529
    -1.0523  -1.0523  -1.0477  -1.0476  -1.0427  -1.0297  -1.0276  -0.9908
    -0.9907  -0.9836  -0.9836  -0.9606  -0.9606  -0.9507  -0.9209  -0.9133
    -0.8858  -0.8858  -0.8578  -0.8577  -0.8550  -0.8538  -0.8532  -0.8492
    -0.8457  -0.8437  -0.8390  -0.8389  -0.8069  -0.8068  -0.7886  -0.7884
    -0.7831  -0.7831  -0.7816  -0.7816  -0.7627  -0.4857  -0.4771  -0.4208
    -0.4204  -0.3813  -0.2204  -0.1553  -0.1552  -0.1242   0.1639   0.1639
     0.4938   0.4942   0.5929   0.5929   0.6341   0.6344   0.7775   0.7775
     0.9016   0.9032   0.9892   1.5889   1.6069   1.6077   1.6470   1.6521
     1.6955   1.6969   1.7771   1.7772   1.9846   1.9847   2.2181   2.2994
     2.3000   2.3155   2.6953   2.6967   2.7701   2.7712   2.7774   2.7775
     2.9289   2.9297   2.9740   3.0725   3.0728   3.3035   3.3079   3.4393
     3.4666   3.4667   3.7376   3.7379   3.8497   3.8698   3.8698   3.9225
     3.9448   4.0569   4.0572   4.2939   4.2942   4.3802   4.3823   4.5066
     4.5105   4.5249   4.5312   4.6010   4.7527   5.3213   5.3292   5.4337
     5.4376   5.4478   5.6176   5.6184   5.6262   5.6866   5.6939   5.7332
     5.7346   5.7874   5.7875   5.8311   5.9226   6.0121   6.0730   6.0984
     6.1067   6.1148   6.1275   6.1287   6.1309   6.1384   6.1401   6.1900

          k =-0.2500 0.2500-0.0833 (167653 PWs)   bands (ev):

   -19.2956  -7.1102  -6.8366  -6.3082  -6.3077  -5.8784  -5.4693  -5.3763
    -5.3758  -5.1801  -5.1801  -5.0624  -5.0617  -4.9837  -4.9607  -4.8877
    -4.8028  -4.7990  -4.7601  -4.7600  -4.5991  -4.5825  -4.5815  -4.5811
    -4.5743  -4.5185  -4.5185  -4.5067  -4.5064  -4.4696  -4.4570  -4.4565
    -4.4148  -4.4147  -4.3813  -4.3801  -4.3282  -4.3277  -4.3170  -4.3161
    -4.3107  -4.2975  -4.2975  -4.2561  -4.2382  -4.2380  -4.2312  -4.2310
    -4.1988  -4.1490  -4.1340  -4.1337  -4.1299  -4.1296  -4.1221  -4.1165
    -4.1161  -4.1160  -4.0510  -4.0504  -4.0011  -4.0007  -3.9885  -3.9624
    -3.9623  -3.9424  -3.9400  -3.9396  -3.9351  -3.9322  -3.8833  -3.8833
    -3.8703  -3.8699  -3.7650  -3.7645  -3.7588  -3.7583  -3.7212  -3.7117
    -3.6979  -3.6679  -3.6679  -3.6394  -3.6390  -3.6175  -3.6172  -3.6038
    -3.6033  -3.5488  -3.5486  -3.5301  -3.5147  -3.5031  -3.5018  -3.5016
    -3.5001  -3.4731  -3.4729  -3.4366  -3.4366  -3.4140  -3.4137  -3.3810
    -3.3807  -3.3625  -3.3351  -3.3350  -3.3170  -3.2978  -3.2975  -3.2622
    -3.2548  -3.2540  -3.2400  -3.2397  -3.2349  -3.2347  -3.1959  -3.1861
    -3.1452  -3.1452  -3.1374  -3.1278  -3.1271  -3.1257  -3.1013  -3.1012
    -3.0801  -3.0796  -3.0791  -3.0524  -3.0524  -3.0449  -3.0420  -3.0419
    -3.0060  -3.0015  -2.9664  -2.9660  -2.9653  -2.9624  -2.9622  -2.8833
    -2.8732  -2.8689  -2.8684  -2.8672  -2.8669  -2.8621  -2.8620  -2.8618
    -2.8615  -2.8521  -2.8443  -2.8271  -2.8245  -2.8240  -2.8236  -2.8089
    -2.8043  -2.7662  -2.7655  -2.7652  -2.7613  -2.7608  -2.7428  -2.7426
    -2.7337  -2.7337  -2.7315  -2.6718  -2.6718  -2.6665  -2.6664  -2.6614
    -2.6612  -2.6331  -2.5740  -2.5728  -2.5724  -2.5707  -2.5593  -2.5570
    -2.5523  -2.5413  -2.5411  -2.5044  -2.5037  -2.4953  -2.4946  -2.4943
    -2.4939  -2.4546  -2.4542  -2.4445  -2.4445  -2.4430  -2.4427  -2.4009
    -2.3849  -2.3794  -2.3260  -2.3258  -2.3072  -2.3056  -2.3004  -2.3003
    -2.2518  -2.2511  -2.2280  -2.2115  -2.1973  -2.1967  -2.1965  -2.1745
    -2.1744  -2.1647  -2.1482  -2.1070  -2.1065  -2.0932  -2.0929  -2.0925
    -2.0816  -2.0813  -2.0659  -2.0658  -2.0651  -2.0615  -2.0567  -2.0564
    -2.0557  -2.0438  -2.0435  -2.0259  -2.0257  -2.0236  -2.0175  -2.0146
    -2.0143  -1.9906  -1.9903  -1.9792  -1.9770  -1.9727  -1.9721  -1.9340
    -1.9002  -1.8997  -1.8645  -1.8472  -1.8469  -1.8363  -1.8359  -1.8128
    -1.8123  -1.7978  -1.7974  -1.7961  -1.7960  -1.7930  -1.7925  -1.7604
    -1.7603  -1.7600  -1.7141  -1.7137  -1.6740  -1.6737  -1.6266  -1.6265
    -1.6142  -1.5917  -1.5864  -1.5841  -1.5674  -1.5658  -1.5485  -1.5480
    -1.5435  -1.5429  -1.5416  -1.5412  -1.5407  -1.5382  -1.5181  -1.5180
    -1.5077  -1.4901  -1.4711  -1.4711  -1.4448  -1.4446  -1.4419  -1.4414
    -1.4384  -1.4357  -1.4140  -1.4136  -1.3991  -1.3982  -1.3859  -1.3754
    -1.3620  -1.3615  -1.3308  -1.3304  -1.3231  -1.3225  -1.2974  -1.2871
    -1.2861  -1.2787  -1.2783  -1.2698  -1.2695  -1.2481  -1.2478  -1.2359
    -1.2293  -1.2289  -1.2159  -1.2155  -1.2154  -1.2148  -1.2006  -1.1902
    -1.1894  -1.1822  -1.1821  -1.1701  -1.1655  -1.1652  -1.1585  -1.1193
    -1.1170  -1.1119  -1.1103  -1.1097  -1.1082  -1.0698  -1.0534  -1.0525
    -1.0524  -1.0522  -1.0478  -1.0476  -1.0427  -1.0297  -1.0276  -0.9910
    -0.9905  -0.9836  -0.9836  -0.9607  -0.9605  -0.9507  -0.9209  -0.9133
    -0.8860  -0.8856  -0.8578  -0.8577  -0.8550  -0.8538  -0.8532  -0.8492
    -0.8457  -0.8437  -0.8391  -0.8388  -0.8070  -0.8067  -0.7890  -0.7881
    -0.7833  -0.7829  -0.7817  -0.7814  -0.7627  -0.4858  -0.4771  -0.4216
    -0.4195  -0.3813  -0.2204  -0.1555  -0.1550  -0.1242   0.1637   0.1641
     0.4929   0.4950   0.5928   0.5930   0.6337   0.6348   0.7769   0.7781
     0.9016   0.9033   0.9892   1.5889   1.6069   1.6077   1.6470   1.6521
     1.6934   1.6990   1.7766   1.7777   1.9844   1.9849   2.2182   2.2985
     2.3009   2.3155   2.6936   2.6984   2.7701   2.7712   2.7771   2.7778
     2.9289   2.9297   2.9738   3.0712   3.0742   3.3035   3.3077   3.4394
     3.4662   3.4671   3.7366   3.7388   3.8505   3.8698   3.8699   3.9181
     3.9487   4.0564   4.0577   4.2938   4.2942   4.3794   4.3828   4.5068
     4.5100   4.5264   4.5331   4.6035   4.7473   5.3160   5.3327   5.4353
     5.4385   5.4549   5.6013   5.6179   5.6193   5.6849   5.7016   5.7333
     5.7345   5.7870   5.7878   5.8309   5.9248   6.0192   6.0804   6.0979
     6.1043   6.1148   6.1267   6.1300   6.1384   6.1401   6.1475   6.1841

          k = 0.2500-0.2500-0.0833 (167653 PWs)   bands (ev):

   -19.2956  -7.1102  -6.8366  -6.3082  -6.3077  -5.8784  -5.4693  -5.3763
    -5.3758  -5.1801  -5.1801  -5.0624  -5.0617  -4.9837  -4.9607  -4.8877
    -4.8028  -4.7990  -4.7601  -4.7600  -4.5991  -4.5825  -4.5815  -4.5811
    -4.5743  -4.5185  -4.5185  -4.5067  -4.5064  -4.4696  -4.4570  -4.4565
    -4.4148  -4.4147  -4.3813  -4.3801  -4.3282  -4.3277  -4.3170  -4.3161
    -4.3107  -4.2975  -4.2975  -4.2561  -4.2382  -4.2380  -4.2312  -4.2310
    -4.1988  -4.1490  -4.1340  -4.1337  -4.1299  -4.1296  -4.1221  -4.1165
    -4.1161  -4.1160  -4.0510  -4.0504  -4.0011  -4.0007  -3.9885  -3.9624
    -3.9623  -3.9424  -3.9400  -3.9396  -3.9351  -3.9322  -3.8833  -3.8833
    -3.8703  -3.8699  -3.7650  -3.7645  -3.7588  -3.7583  -3.7212  -3.7117
    -3.6979  -3.6679  -3.6679  -3.6394  -3.6390  -3.6175  -3.6172  -3.6038
    -3.6033  -3.5488  -3.5486  -3.5301  -3.5147  -3.5031  -3.5018  -3.5016
    -3.5001  -3.4731  -3.4729  -3.4366  -3.4366  -3.4140  -3.4137  -3.3810
    -3.3807  -3.3625  -3.3351  -3.3350  -3.3170  -3.2978  -3.2975  -3.2622
    -3.2548  -3.2540  -3.2400  -3.2397  -3.2349  -3.2347  -3.1959  -3.1861
    -3.1452  -3.1452  -3.1374  -3.1278  -3.1271  -3.1257  -3.1013  -3.1012
    -3.0801  -3.0796  -3.0791  -3.0524  -3.0524  -3.0449  -3.0420  -3.0419
    -3.0060  -3.0015  -2.9664  -2.9660  -2.9653  -2.9624  -2.9622  -2.8833
    -2.8732  -2.8689  -2.8684  -2.8672  -2.8669  -2.8621  -2.8620  -2.8618
    -2.8615  -2.8521  -2.8443  -2.8271  -2.8245  -2.8240  -2.8236  -2.8089
    -2.8043  -2.7662  -2.7655  -2.7652  -2.7613  -2.7608  -2.7428  -2.7426
    -2.7337  -2.7337  -2.7315  -2.6718  -2.6718  -2.6665  -2.6664  -2.6614
    -2.6612  -2.6331  -2.5740  -2.5728  -2.5724  -2.5707  -2.5593  -2.5570
    -2.5523  -2.5413  -2.5411  -2.5044  -2.5037  -2.4953  -2.4946  -2.4943
    -2.4939  -2.4546  -2.4542  -2.4445  -2.4445  -2.4430  -2.4427  -2.4009
    -2.3849  -2.3794  -2.3260  -2.3258  -2.3072  -2.3056  -2.3004  -2.3003
    -2.2518  -2.2511  -2.2280  -2.2115  -2.1973  -2.1967  -2.1965  -2.1745
    -2.1744  -2.1647  -2.1482  -2.1070  -2.1065  -2.0932  -2.0929  -2.0925
    -2.0816  -2.0813  -2.0659  -2.0658  -2.0651  -2.0615  -2.0567  -2.0564
    -2.0557  -2.0438  -2.0435  -2.0259  -2.0257  -2.0236  -2.0175  -2.0146
    -2.0143  -1.9906  -1.9903  -1.9792  -1.9770  -1.9727  -1.9721  -1.9340
    -1.9002  -1.8997  -1.8645  -1.8472  -1.8469  -1.8363  -1.8359  -1.8128
    -1.8123  -1.7978  -1.7974  -1.7961  -1.7960  -1.7930  -1.7925  -1.7604
    -1.7603  -1.7600  -1.7141  -1.7137  -1.6740  -1.6737  -1.6266  -1.6265
    -1.6142  -1.5917  -1.5864  -1.5841  -1.5674  -1.5658  -1.5485  -1.5480
    -1.5435  -1.5429  -1.5416  -1.5412  -1.5407  -1.5382  -1.5181  -1.5180
    -1.5077  -1.4901  -1.4711  -1.4711  -1.4448  -1.4446  -1.4419  -1.4414
    -1.4384  -1.4357  -1.4140  -1.4136  -1.3991  -1.3982  -1.3859  -1.3754
    -1.3620  -1.3615  -1.3308  -1.3304  -1.3231  -1.3225  -1.2974  -1.2871
    -1.2861  -1.2787  -1.2783  -1.2698  -1.2695  -1.2481  -1.2478  -1.2359
    -1.2293  -1.2289  -1.2159  -1.2155  -1.2154  -1.2148  -1.2006  -1.1902
    -1.1894  -1.1822  -1.1821  -1.1701  -1.1655  -1.1652  -1.1585  -1.1193
    -1.1170  -1.1119  -1.1103  -1.1097  -1.1082  -1.0698  -1.0534  -1.0525
    -1.0524  -1.0522  -1.0478  -1.0476  -1.0427  -1.0297  -1.0276  -0.9910
    -0.9905  -0.9836  -0.9836  -0.9607  -0.9605  -0.9507  -0.9209  -0.9133
    -0.8860  -0.8856  -0.8578  -0.8577  -0.8550  -0.8538  -0.8532  -0.8492
    -0.8457  -0.8437  -0.8391  -0.8388  -0.8070  -0.8067  -0.7890  -0.7881
    -0.7833  -0.7829  -0.7817  -0.7814  -0.7627  -0.4858  -0.4771  -0.4216
    -0.4195  -0.3813  -0.2204  -0.1555  -0.1550  -0.1242   0.1637   0.1641
     0.4929   0.4950   0.5928   0.5930   0.6337   0.6348   0.7769   0.7781
     0.9016   0.9033   0.9892   1.5889   1.6069   1.6077   1.6470   1.6521
     1.6934   1.6990   1.7766   1.7777   1.9844   1.9849   2.2182   2.2985
     2.3009   2.3155   2.6936   2.6984   2.7701   2.7712   2.7771   2.7778
     2.9289   2.9297   2.9738   3.0712   3.0742   3.3035   3.3077   3.4394
     3.4662   3.4671   3.7366   3.7388   3.8505   3.8698   3.8699   3.9181
     3.9487   4.0564   4.0577   4.2938   4.2942   4.3794   4.3828   4.5068
     4.5100   4.5264   4.5331   4.6036   4.7471   5.3163   5.3325   5.4328
     5.4385   5.4499   5.6169   5.6190   5.6213   5.6876   5.6931   5.7332
     5.7344   5.7869   5.7878   5.8309   5.9264   6.0082   6.0808   6.0976
     6.1048   6.1148   6.1266   6.1300   6.1384   6.1398   6.1402   6.1927

          k =-0.2500 0.2500 0.2500 (167588 PWs)   bands (ev):

   -19.2956  -7.1102  -6.8366  -6.3082  -6.3077  -5.8784  -5.4693  -5.3763
    -5.3758  -5.1801  -5.1801  -5.0624  -5.0617  -4.9837  -4.9607  -4.8877
    -4.8027  -4.7990  -4.7601  -4.7600  -4.5991  -4.5825  -4.5814  -4.5811
    -4.5743  -4.5185  -4.5185  -4.5067  -4.5064  -4.4696  -4.4570  -4.4565
    -4.4148  -4.4147  -4.3813  -4.3801  -4.3282  -4.3277  -4.3170  -4.3161
    -4.3107  -4.2975  -4.2975  -4.2561  -4.2382  -4.2380  -4.2312  -4.2310
    -4.1988  -4.1490  -4.1340  -4.1337  -4.1299  -4.1296  -4.1221  -4.1165
    -4.1161  -4.1160  -4.0510  -4.0504  -4.0011  -4.0007  -3.9885  -3.9624
    -3.9623  -3.9424  -3.9400  -3.9396  -3.9351  -3.9322  -3.8833  -3.8833
    -3.8703  -3.8699  -3.7650  -3.7645  -3.7588  -3.7583  -3.7212  -3.7117
    -3.6979  -3.6679  -3.6679  -3.6394  -3.6390  -3.6175  -3.6172  -3.6038
    -3.6033  -3.5488  -3.5486  -3.5301  -3.5147  -3.5031  -3.5018  -3.5016
    -3.5001  -3.4731  -3.4729  -3.4366  -3.4366  -3.4140  -3.4137  -3.3810
    -3.3807  -3.3625  -3.3351  -3.3350  -3.3170  -3.2978  -3.2975  -3.2622
    -3.2548  -3.2540  -3.2400  -3.2397  -3.2349  -3.2347  -3.1959  -3.1861
    -3.1452  -3.1452  -3.1373  -3.1278  -3.1271  -3.1257  -3.1013  -3.1013
    -3.0801  -3.0796  -3.0791  -3.0524  -3.0524  -3.0448  -3.0420  -3.0419
    -3.0060  -3.0015  -2.9664  -2.9660  -2.9653  -2.9624  -2.9622  -2.8833
    -2.8732  -2.8689  -2.8684  -2.8672  -2.8669  -2.8621  -2.8620  -2.8618
    -2.8615  -2.8521  -2.8443  -2.8271  -2.8245  -2.8240  -2.8236  -2.8089
    -2.8043  -2.7662  -2.7655  -2.7652  -2.7613  -2.7608  -2.7428  -2.7426
    -2.7337  -2.7337  -2.7315  -2.6718  -2.6718  -2.6665  -2.6664  -2.6614
    -2.6612  -2.6331  -2.5740  -2.5728  -2.5724  -2.5708  -2.5593  -2.5570
    -2.5523  -2.5413  -2.5410  -2.5044  -2.5037  -2.4953  -2.4946  -2.4943
    -2.4939  -2.4546  -2.4543  -2.4445  -2.4445  -2.4430  -2.4427  -2.4009
    -2.3849  -2.3794  -2.3260  -2.3258  -2.3072  -2.3057  -2.3004  -2.3003
    -2.2518  -2.2511  -2.2280  -2.2115  -2.1973  -2.1967  -2.1965  -2.1745
    -2.1744  -2.1647  -2.1482  -2.1070  -2.1065  -2.0932  -2.0929  -2.0925
    -2.0816  -2.0813  -2.0659  -2.0658  -2.0651  -2.0615  -2.0567  -2.0564
    -2.0557  -2.0438  -2.0435  -2.0259  -2.0257  -2.0236  -2.0175  -2.0146
    -2.0143  -1.9906  -1.9903  -1.9792  -1.9770  -1.9727  -1.9721  -1.9340
    -1.9002  -1.8997  -1.8645  -1.8472  -1.8469  -1.8363  -1.8359  -1.8128
    -1.8123  -1.7978  -1.7974  -1.7961  -1.7960  -1.7930  -1.7925  -1.7604
    -1.7603  -1.7600  -1.7140  -1.7137  -1.6740  -1.6737  -1.6266  -1.6265
    -1.6142  -1.5917  -1.5864  -1.5841  -1.5674  -1.5658  -1.5485  -1.5480
    -1.5435  -1.5429  -1.5416  -1.5412  -1.5407  -1.5382  -1.5181  -1.5180
    -1.5077  -1.4902  -1.4711  -1.4711  -1.4448  -1.4446  -1.4419  -1.4414
    -1.4384  -1.4357  -1.4140  -1.4136  -1.3991  -1.3982  -1.3859  -1.3754
    -1.3620  -1.3615  -1.3308  -1.3304  -1.3231  -1.3225  -1.2974  -1.2871
    -1.2861  -1.2787  -1.2783  -1.2698  -1.2695  -1.2481  -1.2478  -1.2359
    -1.2293  -1.2289  -1.2159  -1.2155  -1.2154  -1.2148  -1.2006  -1.1903
    -1.1894  -1.1822  -1.1821  -1.1701  -1.1655  -1.1652  -1.1585  -1.1193
    -1.1170  -1.1119  -1.1103  -1.1097  -1.1082  -1.0698  -1.0534  -1.0525
    -1.0524  -1.0522  -1.0478  -1.0476  -1.0427  -1.0297  -1.0276  -0.9910
    -0.9905  -0.9836  -0.9836  -0.9607  -0.9605  -0.9507  -0.9209  -0.9133
    -0.8860  -0.8856  -0.8578  -0.8577  -0.8550  -0.8538  -0.8532  -0.8492
    -0.8457  -0.8437  -0.8391  -0.8388  -0.8070  -0.8067  -0.7890  -0.7881
    -0.7833  -0.7829  -0.7817  -0.7814  -0.7627  -0.4858  -0.4771  -0.4216
    -0.4195  -0.3813  -0.2204  -0.1555  -0.1550  -0.1242   0.1637   0.1641
     0.4929   0.4950   0.5928   0.5930   0.6337   0.6348   0.7769   0.7781
     0.9016   0.9033   0.9892   1.5889   1.6069   1.6077   1.6470   1.6521
     1.6934   1.6990   1.7766   1.7777   1.9844   1.9849   2.2182   2.2985
     2.3009   2.3155   2.6936   2.6984   2.7701   2.7712   2.7771   2.7778
     2.9289   2.9297   2.9738   3.0712   3.0742   3.3035   3.3077   3.4394
     3.4662   3.4671   3.7366   3.7388   3.8505   3.8698   3.8699   3.9183
     3.9488   4.0564   4.0577   4.2938   4.2942   4.3794   4.3828   4.5068
     4.5100   4.5264   4.5331   4.6025   4.7453   5.3151   5.3324   5.4289
     5.4386   5.4471   5.6173   5.6192   5.6320   5.6787   5.7260   5.7334
     5.7358   5.7870   5.7878   5.8310   5.9368   6.0210   6.0781   6.0982
     6.1088   6.1150   6.1271   6.1301   6.1384   6.1523   6.1854   6.2239

     the Fermi energy is     0.8519 ev

!    total energy              =   -7425.28718065 Ry
     Harris-Foulkes estimate   =   -7425.28718065 Ry
     estimated scf accuracy    <          3.4E-09 Ry

     The total energy is the sum of the following terms:

     one-electron contribution =  -48261.68578961 Ry
     hartree contribution      =   24681.32846317 Ry
     xc contribution           =   -3604.19323898 Ry
     ewald contribution        =   19759.26632019 Ry
     smearing contrib. (-TS)   =      -0.00293542 Ry

     convergence has been achieved in  29 iterations

     Writing output data file 9137108.save

     init_run     :    167.20s CPU    174.58s WALL (       1 calls)
     electrons    :  10418.11s CPU  10820.27s WALL (       1 calls)

     Called by init_run:
     wfcinit      :    127.81s CPU    134.30s WALL (       1 calls)
     potinit      :      7.01s CPU      7.53s WALL (       1 calls)

     Called by electrons:
     c_bands      :   8302.79s CPU   8617.69s WALL (      30 calls)
     sum_band     :   1349.10s CPU   1418.68s WALL (      30 calls)
     v_of_rho     :    132.42s CPU    144.62s WALL (      30 calls)
     newd         :    652.26s CPU    657.48s WALL (      30 calls)
     mix_rho      :      3.80s CPU      4.18s WALL (      30 calls)
     vdW_energy   :     10.62s CPU     11.56s WALL (      30 calls)
     vdW_ffts     :     68.05s CPU     73.97s WALL (      60 calls)
     vdW_v        :     16.53s CPU     17.37s WALL (      30 calls)

     Called by c_bands:
     init_us_2    :     10.65s CPU     10.95s WALL (     366 calls)
     cegterg      :   8091.98s CPU   8405.42s WALL (     180 calls)

     Called by *egterg:
     h_psi        :   3615.41s CPU   3882.32s WALL (     881 calls)
     s_psi        :    373.48s CPU    375.66s WALL (     881 calls)
     g_psi        :      4.72s CPU      4.74s WALL (     695 calls)
     cdiaghg      :   1590.32s CPU   1595.25s WALL (     869 calls)

     Called by h_psi:
     add_vuspsi   :    378.13s CPU    380.34s WALL (     881 calls)

     General routines
     calbec       :    953.66s CPU    956.90s WALL (    1061 calls)
     fft          :    386.66s CPU    398.50s WALL (    1980 calls)
     ffts         :      2.19s CPU      2.45s WALL (      60 calls)
     fftw         :   2884.77s CPU   3192.48s WALL (  480454 calls)
     interpolate  :      5.32s CPU      6.03s WALL (      60 calls)
     davcio       :      0.00s CPU      0.11s WALL (       6 calls)

     Parallel routines
     fft_scatter  :   2637.31s CPU   2922.53s WALL (  482494 calls)

     PWSCF        :     2h56m CPU        3h 3m WALL


   This run was terminated on:  12:55:47   3Jul2015            

=------------------------------------------------------------------------------=
   JOB DONE.
=------------------------------------------------------------------------------=
