Setting SGE environment for SCC

     Program PWSCF v.5.1.2 starts on 29Aug2015 at 20:55: 3 

     This program is part of the open-source Quantum ESPRESSO suite
     for quantum simulation of materials; please cite
         "P. Giannozzi et al., J. Phys.:Condens. Matter 21 395502 (2009);
          URL http://www.quantum-espresso.org", 
     in publications or presentations arising from this work. More details at
     http://www.quantum-espresso.org/quote

     Parallel version (MPI), running on    32 processors
     R & G space division:  proc/nbgrp/npool/nimage =      32
     Reading input from top.O1.Au62.d.3.6.phi.0.psi.90.in
Warning: card &IONS ignored
Warning: card / ignored
Warning: card &CELL ignored
Warning: card / ignored

     Current dimensions of program PWSCF are:
     Max number of different atomic species (ntypx) = 10
     Max number of k-points (npk) =  40000
     Max angular momentum in pseudopotentials (lmaxx) =  3

     IMPORTANT: XC functional enforced from input :
     Exchange-correlation      = VDW-DF ( 1  4  4  0 1 0)
     Any further DFT definition will be discarded
     Please, verify this is what you really want


     Subspace diagonalization in iterative solution of the eigenvalue problem:
     a serial algorithm will be used


     Parallelization info
     --------------------
     sticks:   dense  smooth     PW     G-vecs:    dense   smooth      PW
     Min         578     289     74               118518    41891    5486
     Max         579     290     75               118533    41932    5497
     Sum       18505    9265   2385              3792731  1341081  175711


     Title: 
     top.O1.Au62.d.3.6.phi.0.psi.90                                             


     bravais-lattice index     =            8
     lattice parameter (alat)  =      24.1233  a.u.
     unit-cell volume          =   28076.2361 (a.u.)^3
     number of atoms/cell      =           75
     number of atomic types    =            3
     number of electrons       =       800.00
     number of Kohn-Sham states=          480
     kinetic-energy cutoff     =      50.0000  Ry
     charge density cutoff     =     400.0000  Ry
     convergence threshold     =      1.0E-08
     mixing beta               =       0.7000
     number of iterations used =            8  plain     mixing
     Exchange-correlation      = VDW-DF ( 1  4  4  0 1 0)

     celldm(1)=  24.123277  celldm(2)=   1.000000  celldm(3)=   2.000000
     celldm(4)=   0.000000  celldm(5)=   0.000000  celldm(6)=   0.000000

     crystal axes: (cart. coord. in units of alat)
               a(1) = (   1.000000   0.000000   0.000000 )  
               a(2) = (   0.000000   1.000000   0.000000 )  
               a(3) = (   0.000000   0.000000   2.000000 )  

     reciprocal axes: (cart. coord. in units 2 pi/alat)
               b(1) = (  1.000000  0.000000  0.000000 )  
               b(2) = (  0.000000  1.000000  0.000000 )  
               b(3) = (  0.000000  0.000000  0.500000 )  


     PseudoPot. # 1 for Au read from file:
     /home/scc/andrejb/qe/pseudo/Au.pbe-nd-van.UPF
     MD5 check sum: 458681b50f36d87ef23c61b04bba420a
     Pseudo is Ultrasoft + core correction, Zval = 11.0
     Generated by new atomic code, or converted to UPF format
     Using radial grid of  985 points,  3 beta functions with: 
                l(1) =   1
                l(2) =   2
                l(3) =   2
     Q(r) pseudized with  8 coefficients,  rinner =    1.100   1.100   1.100
                                                       1.100   1.100

     PseudoPot. # 2 for H  read from file:
     /home/scc/andrejb/qe/pseudo/H.pbe-van_ak.UPF
     MD5 check sum: 403db7282739603aa925980fa9b8608d
     Pseudo is Ultrasoft, Zval =  1.0
     Generated by new atomic code, or converted to UPF format
     Using radial grid of  615 points,  1 beta functions with: 
                l(1) =   0
     Q(r) pseudized with  8 coefficients,  rinner =    0.800

     PseudoPot. # 3 for O  read from file:
     /home/scc/andrejb/qe/pseudo/O.pbe-van_ak.UPF
     MD5 check sum: 4b8c549914a63cae506c6ff22b5af4fe
     Pseudo is Ultrasoft, Zval =  6.0
     Generated by new atomic code, or converted to UPF format
     Using radial grid of  737 points,  4 beta functions with: 
                l(1) =   0
                l(2) =   0
                l(3) =   1
                l(4) =   1
     Q(r) pseudized with  8 coefficients,  rinner =    0.800   0.800   0.800


     vdW kernel table read from file vdW_kernel_table
     MD5 check sum: 48e77a2e26edf626eeb0eaa751ad5cac

     atomic species   valence    mass     pseudopotential
        Au            11.00   196.96657     Au( 1.00)
        H              1.00     1.01000     H ( 1.00)
        O              6.00    16.00000     O ( 1.00)

     No symmetry found



   Cartesian axes

     site n.     atom                  positions (alat units)
         1           O   tau(   1) = (   0.4998324   0.3332216   0.7813289  )
         2           H   tau(   2) = (   0.4527548   0.2877277   0.7421574  )
         3           H   tau(   3) = (   0.5454827   0.2853639   0.8193306  )
         4           Au  tau(   4) = (   0.0000000   0.0000000   0.0000000  )
         5           Au  tau(   5) = (   0.3332217   0.0000000   0.0000000  )
         6           Au  tau(   6) = (   0.6664434   0.0000000   0.0000000  )
         7           Au  tau(   7) = (   0.1666109   0.1666109   0.0000000  )
         8           Au  tau(   8) = (   0.4998326   0.1666109   0.0000000  )
         9           Au  tau(   9) = (   0.8330542   0.1666109   0.0000000  )
        10           Au  tau(  10) = (   0.0000000   0.3332217   0.0000000  )
        11           Au  tau(  11) = (   0.3332217   0.3332217   0.0000000  )
        12           Au  tau(  12) = (   0.6664434   0.3332217   0.0000000  )
        13           Au  tau(  13) = (   0.1666109   0.4998326   0.0000000  )
        14           Au  tau(  14) = (   0.4998326   0.4998326   0.0000000  )
        15           Au  tau(  15) = (   0.8330542   0.4998326   0.0000000  )
        16           Au  tau(  16) = (   0.0000000   0.6664434   0.0000000  )
        17           Au  tau(  17) = (   0.3332217   0.6664434   0.0000000  )
        18           Au  tau(  18) = (   0.6664434   0.6664434   0.0000000  )
        19           Au  tau(  19) = (   0.1666109   0.8330542   0.0000000  )
        20           Au  tau(  20) = (   0.4998326   0.8330542   0.0000000  )
        21           Au  tau(  21) = (   0.8330542   0.8330542   0.0000000  )
        22           Au  tau(  22) = (   0.1666109   0.0000000   0.1666109  )
        23           Au  tau(  23) = (   0.4998326   0.0000000   0.1666109  )
        24           Au  tau(  24) = (   0.8330542   0.0000000   0.1666109  )
        25           Au  tau(  25) = (   0.0000000   0.1666109   0.1666109  )
        26           Au  tau(  26) = (   0.3332217   0.1666109   0.1666109  )
        27           Au  tau(  27) = (   0.6664434   0.1666109   0.1666109  )
        28           Au  tau(  28) = (   0.1666109   0.3332217   0.1666109  )
        29           Au  tau(  29) = (   0.4998326   0.3332217   0.1666109  )
        30           Au  tau(  30) = (   0.8330542   0.3332217   0.1666109  )
        31           Au  tau(  31) = (   0.0000000   0.4998326   0.1666109  )
        32           Au  tau(  32) = (   0.3332217   0.4998326   0.1666109  )
        33           Au  tau(  33) = (   0.6664434   0.4998326   0.1666109  )
        34           Au  tau(  34) = (   0.1666109   0.6664434   0.1666109  )
        35           Au  tau(  35) = (   0.4998326   0.6664434   0.1666109  )
        36           Au  tau(  36) = (   0.8330542   0.6664434   0.1666109  )
        37           Au  tau(  37) = (   0.0000000   0.8330542   0.1666109  )
        38           Au  tau(  38) = (   0.3332217   0.8330542   0.1666109  )
        39           Au  tau(  39) = (   0.6664434   0.8330542   0.1666109  )
        40           Au  tau(  40) = (  -0.0000182  -0.0000182   0.3335478  )
        41           Au  tau(  41) = (   0.3332215  -0.0000181   0.3335473  )
        42           Au  tau(  42) = (   0.6664447  -0.0000183   0.3335481  )
        43           Au  tau(  43) = (  -0.0000181   0.3332215   0.3335473  )
        44           Au  tau(  44) = (   0.3332215   0.3332215   0.3335468  )
        45           Au  tau(  45) = (   0.6664445   0.3332215   0.3335477  )
        46           Au  tau(  46) = (  -0.0000183   0.6664447   0.3335481  )
        47           Au  tau(  47) = (   0.3332215   0.6664445   0.3335477  )
        48           Au  tau(  48) = (   0.6664446   0.6664446   0.3335486  )
        49           Au  tau(  49) = (   0.1666097   0.1666097   0.3335483  )
        50           Au  tau(  50) = (   0.4998320   0.1666098   0.3335477  )
        51           Au  tau(  51) = (   0.8330732   0.1666096   0.3335480  )
        52           Au  tau(  52) = (   0.1666098   0.4998320   0.3335477  )
        53           Au  tau(  53) = (   0.4998322   0.4998322   0.3335470  )
        54           Au  tau(  54) = (   0.8330731   0.4998322   0.3335474  )
        55           Au  tau(  55) = (   0.1666096   0.8330732   0.3335480  )
        56           Au  tau(  56) = (   0.4998322   0.8330731   0.3335474  )
        57           Au  tau(  57) = (   0.8330731   0.8330731   0.3335478  )
        58           Au  tau(  58) = (   0.1666104  -0.0000111   0.4993095  )
        59           Au  tau(  59) = (   0.4998323  -0.0000112   0.4993099  )
        60           Au  tau(  60) = (   0.8330660  -0.0000111   0.4993009  )
        61           Au  tau(  61) = (  -0.0000111   0.1666104   0.4993095  )
        62           Au  tau(  62) = (   0.3332213   0.1666106   0.4993185  )
        63           Au  tau(  63) = (   0.6664437   0.1666106   0.4993187  )
        64           Au  tau(  64) = (   0.1666106   0.3332213   0.4993185  )
        65           Au  tau(  65) = (   0.4998324   0.3332216   0.4993185  )
        66           Au  tau(  66) = (   0.8330658   0.3332215   0.4993102  )
        67           Au  tau(  67) = (  -0.0000112   0.4998323   0.4993099  )
        68           Au  tau(  68) = (   0.3332216   0.4998324   0.4993185  )
        69           Au  tau(  69) = (   0.6664437   0.4998325   0.4993187  )
        70           Au  tau(  70) = (   0.1666106   0.6664437   0.4993187  )
        71           Au  tau(  71) = (   0.4998325   0.6664437   0.4993187  )
        72           Au  tau(  72) = (   0.8330658   0.6664438   0.4993102  )
        73           Au  tau(  73) = (  -0.0000111   0.8330660   0.4993009  )
        74           Au  tau(  74) = (   0.3332215   0.8330658   0.4993102  )
        75           Au  tau(  75) = (   0.6664438   0.8330658   0.4993102  )

     number of k points=     6  Marzari-Vanderbilt smearing, width (Ry)=  0.0200
                       cart. coord. in units 2pi/alat
        k(    1) = (   0.2500000   0.2500000   0.0833333), wk =   0.3333333
        k(    2) = (   0.2500000   0.2500000  -0.2500000), wk =   0.3333333
        k(    3) = (  -0.2500000  -0.2500000   0.0833333), wk =   0.3333333
        k(    4) = (  -0.2500000   0.2500000  -0.0833333), wk =   0.3333333
        k(    5) = (   0.2500000  -0.2500000  -0.0833333), wk =   0.3333333
        k(    6) = (  -0.2500000   0.2500000   0.2500000), wk =   0.3333333

     Dense  grid:  3792731 G-vectors     FFT dimensions: ( 160, 160, 320)

     Smooth grid:  1341081 G-vectors     FFT dimensions: ( 120, 120, 225)

     Largest allocated arrays     est. size (Mb)     dimensions
        Kohn-Sham Wavefunctions        38.58 Mb     (    5267,  480)
        NL pseudopotentials            76.03 Mb     (    5267,  946)
        Each V/rho on FFT grid          3.91 Mb     (  256000)
        Each G-vector array             0.90 Mb     (  118520)
        G-vector shells                 0.08 Mb     (   10286)
     Largest temporary arrays     est. size (Mb)     dimensions
        Auxiliary wavefunctions       154.31 Mb     (    5267, 1920)
        Each subspace H/S matrix       56.25 Mb     (    1920, 1920)
        Each <psi_i|beta_j> matrix      6.93 Mb     (     946,  480)
        Arrays for rho mixing          31.25 Mb     (  256000,    8)

     Initial potential from superposition of free atoms
     Check: negative starting charge=   -1.945052

     starting charge  799.16392, renormalised to  800.00000

     negative rho (up, down):  1.947E+00 0.000E+00


     ************************************************************************
     *
     * You are using vdW-DF for exchange-correlation in this calculation.
     * Please cite the following three references that made this development
     * possible:
     *
     *   M. Dion, H. Rydberg, E. Schroder, D. C. Langreth, and
     *   B. I. Lundqvist, Phys. Rev. Lett. 92, 246401 (2004).
     *
     *   T. Thonhauser, V. R. Cooper, S. Li, A. Puzder, P. Hyldgaard, and
     *   D. C. Langreth, Phys. Rev. B 76, 125112 (2007).
     *
     *   G. Roman-Perez and J. M. Soler, Phys. Rev. Lett. 103, 096102 (2009).
     *
     *
     * If you are using vdW-DF2, please also cite:
     *
     *   K. Lee, E. D. Murray, L. Kong, B. I. Lundqvist, and
     *   D. C. Langreth, Phys. Rev. B 82, 081101(R) (2010).
     *
     *
     * If you are calculating the stress with vdW-DF, please also cite:
     *
     *   R. Sabatini, E. Kucukbenli, B. Kolb, T. Thonhauser, and
     *   S. de Gironcoli, J. Phys.: Condens. Matter 24, 424209 (2012).
     *
     ************************************************************************

     Carrying out vdW-DF run using the following parameters:

     Nqs =      20    Nr_points =    1024   r_max =   100.000
     q_mesh =
               0.00001000     0.04494208     0.09755937     0.15916263
               0.23128650     0.31572767     0.41458969     0.53033537
               0.66584808     0.82450364     1.01025438     1.22772762
               1.48234092     1.78043706     2.12944203     2.53805004
               3.01644009     3.57652955     4.23227104     5.00000000

     Gradients computed in reciprocal space

     ************************************************************************


     Starting wfc are  654 randomized atomic wfcs

     total cpu time spent up to now is      123.2 secs

     Self-consistent Calculation

     iteration #  1     ecut=    50.00 Ry     beta=0.70
     Davidson diagonalization with overlap
     ethr =  1.00E-02,  avg # of iterations =  3.0

     Threshold (ethr) on eigenvalues was too large:
     Diagonalizing with lowered threshold

     Davidson diagonalization with overlap
     ethr =  4.27E-04,  avg # of iterations =  2.0

     negative rho (up, down):  1.947E+00 0.000E+00

     total cpu time spent up to now is      551.1 secs

     total energy              =   -7423.01654056 Ry
     Harris-Foulkes estimate   =   -7426.08302350 Ry
     estimated scf accuracy    <       3.78650136 Ry

     iteration #  2     ecut=    50.00 Ry     beta=0.70
     Davidson diagonalization with overlap
     ethr =  4.73E-04,  avg # of iterations = 11.3

     negative rho (up, down):  1.942E+00 0.000E+00

     total cpu time spent up to now is     1324.9 secs

     total energy              =   -7414.97431545 Ry
     Harris-Foulkes estimate   =   -7432.70841790 Ry
     estimated scf accuracy    <      92.73334153 Ry

     iteration #  3     ecut=    50.00 Ry     beta=0.70
     Davidson diagonalization with overlap
     ethr =  4.73E-04,  avg # of iterations =  6.0

     negative rho (up, down):  1.953E+00 0.000E+00

     total cpu time spent up to now is     1816.2 secs

     total energy              =   -7424.05962710 Ry
     Harris-Foulkes estimate   =   -7425.89935835 Ry
     estimated scf accuracy    <       7.83415902 Ry

     iteration #  4     ecut=    50.00 Ry     beta=0.70
     Davidson diagonalization with overlap
     ethr =  4.73E-04,  avg # of iterations =  6.2

     negative rho (up, down):  1.955E+00 0.000E+00

     total cpu time spent up to now is     2078.9 secs

     total energy              =   -7424.74673830 Ry
     Harris-Foulkes estimate   =   -7425.73137360 Ry
     estimated scf accuracy    <       5.94183366 Ry

     iteration #  5     ecut=    50.00 Ry     beta=0.70
     Davidson diagonalization with overlap
     ethr =  4.73E-04,  avg # of iterations =  6.0

     negative rho (up, down):  1.963E+00 0.000E+00

     total cpu time spent up to now is     2356.0 secs

     total energy              =   -7425.12257143 Ry
     Harris-Foulkes estimate   =   -7425.55096168 Ry
     estimated scf accuracy    <       3.12683490 Ry

     iteration #  6     ecut=    50.00 Ry     beta=0.70
     Davidson diagonalization with overlap
     ethr =  3.91E-04,  avg # of iterations =  5.8

     negative rho (up, down):  1.967E+00 0.000E+00

     total cpu time spent up to now is     2597.2 secs

     total energy              =   -7425.28401298 Ry
     Harris-Foulkes estimate   =   -7425.33074710 Ry
     estimated scf accuracy    <       0.15062160 Ry

     iteration #  7     ecut=    50.00 Ry     beta=0.70
     Davidson diagonalization with overlap
     ethr =  1.88E-05,  avg # of iterations = 11.5

     negative rho (up, down):  1.970E+00 0.000E+00

     total cpu time spent up to now is     3013.5 secs

     total energy              =   -7425.28192255 Ry
     Harris-Foulkes estimate   =   -7425.33041350 Ry
     estimated scf accuracy    <       0.25009292 Ry

     iteration #  8     ecut=    50.00 Ry     beta=0.70
     Davidson diagonalization with overlap
     ethr =  1.88E-05,  avg # of iterations =  3.0

     negative rho (up, down):  1.971E+00 0.000E+00

     total cpu time spent up to now is     3245.1 secs

     total energy              =   -7425.29267910 Ry
     Harris-Foulkes estimate   =   -7425.31018774 Ry
     estimated scf accuracy    <       0.07095489 Ry

     iteration #  9     ecut=    50.00 Ry     beta=0.70
     Davidson diagonalization with overlap
     ethr =  8.87E-06,  avg # of iterations =  4.3

     negative rho (up, down):  1.972E+00 0.000E+00

     total cpu time spent up to now is     3487.0 secs

     total energy              =   -7425.29296260 Ry
     Harris-Foulkes estimate   =   -7425.30325625 Ry
     estimated scf accuracy    <       0.03532811 Ry

     iteration # 10     ecut=    50.00 Ry     beta=0.70
     Davidson diagonalization with overlap
     ethr =  4.42E-06,  avg # of iterations =  6.3

     negative rho (up, down):  1.973E+00 0.000E+00

     total cpu time spent up to now is     3751.6 secs

     total energy              =   -7425.29404136 Ry
     Harris-Foulkes estimate   =   -7425.29730439 Ry
     estimated scf accuracy    <       0.01003780 Ry

     iteration # 11     ecut=    50.00 Ry     beta=0.70
     Davidson diagonalization with overlap
     ethr =  1.25E-06,  avg # of iterations =  7.8

     negative rho (up, down):  1.974E+00 0.000E+00

     total cpu time spent up to now is     4033.3 secs

     total energy              =   -7425.29426130 Ry
     Harris-Foulkes estimate   =   -7425.29560340 Ry
     estimated scf accuracy    <       0.00489810 Ry

     iteration # 12     ecut=    50.00 Ry     beta=0.70
     Davidson diagonalization with overlap
     ethr =  6.12E-07,  avg # of iterations =  3.2

     negative rho (up, down):  1.974E+00 0.000E+00

     total cpu time spent up to now is     4244.0 secs

     total energy              =   -7425.29358563 Ry
     Harris-Foulkes estimate   =   -7425.29474505 Ry
     estimated scf accuracy    <       0.00168426 Ry

     iteration # 13     ecut=    50.00 Ry     beta=0.70
     Davidson diagonalization with overlap
     ethr =  2.11E-07,  avg # of iterations =  8.7

     negative rho (up, down):  1.974E+00 0.000E+00

     total cpu time spent up to now is     4660.5 secs

     total energy              =   -7425.29277352 Ry
     Harris-Foulkes estimate   =   -7425.29549041 Ry
     estimated scf accuracy    <       0.01330761 Ry

     iteration # 14     ecut=    50.00 Ry     beta=0.70
     Davidson diagonalization with overlap
     ethr =  2.11E-07,  avg # of iterations =  3.0

     negative rho (up, down):  1.974E+00 0.000E+00

     total cpu time spent up to now is     4934.9 secs

     total energy              =   -7425.29396311 Ry
     Harris-Foulkes estimate   =   -7425.29429096 Ry
     estimated scf accuracy    <       0.00141862 Ry

     iteration # 15     ecut=    50.00 Ry     beta=0.70
     Davidson diagonalization with overlap
     ethr =  1.77E-07,  avg # of iterations =  2.0

     negative rho (up, down):  1.974E+00 0.000E+00

     total cpu time spent up to now is     5144.9 secs

     total energy              =   -7425.29413083 Ry
     Harris-Foulkes estimate   =   -7425.29417045 Ry
     estimated scf accuracy    <       0.00016703 Ry

     iteration # 16     ecut=    50.00 Ry     beta=0.70
     Davidson diagonalization with overlap
     ethr =  2.09E-08,  avg # of iterations =  2.0

     negative rho (up, down):  1.974E+00 0.000E+00

     total cpu time spent up to now is     5368.0 secs

     total energy              =   -7425.29414118 Ry
     Harris-Foulkes estimate   =   -7425.29416597 Ry
     estimated scf accuracy    <       0.00009801 Ry

     iteration # 17     ecut=    50.00 Ry     beta=0.70
     Davidson diagonalization with overlap
     ethr =  1.23E-08,  avg # of iterations =  1.2

     negative rho (up, down):  1.974E+00 0.000E+00

     total cpu time spent up to now is     5563.6 secs

     total energy              =   -7425.29414581 Ry
     Harris-Foulkes estimate   =   -7425.29416576 Ry
     estimated scf accuracy    <       0.00014866 Ry

     iteration # 18     ecut=    50.00 Ry     beta=0.70
     Davidson diagonalization with overlap
     ethr =  1.23E-08,  avg # of iterations =  1.0

     negative rho (up, down):  1.974E+00 0.000E+00

     total cpu time spent up to now is     5753.5 secs

     total energy              =   -7425.29415546 Ry
     Harris-Foulkes estimate   =   -7425.29415815 Ry
     estimated scf accuracy    <       0.00001174 Ry

     iteration # 19     ecut=    50.00 Ry     beta=0.70
     Davidson diagonalization with overlap
     ethr =  1.47E-09,  avg # of iterations =  2.0

     negative rho (up, down):  1.974E+00 0.000E+00

     total cpu time spent up to now is     5944.4 secs

     total energy              =   -7425.29415635 Ry
     Harris-Foulkes estimate   =   -7425.29415767 Ry
     estimated scf accuracy    <       0.00000552 Ry

     iteration # 20     ecut=    50.00 Ry     beta=0.70
     Davidson diagonalization with overlap
     ethr =  6.90E-10,  avg # of iterations =  2.0

     negative rho (up, down):  1.974E+00 0.000E+00

     total cpu time spent up to now is     6163.1 secs

     total energy              =   -7425.29415711 Ry
     Harris-Foulkes estimate   =   -7425.29415756 Ry
     estimated scf accuracy    <       0.00000282 Ry

     iteration # 21     ecut=    50.00 Ry     beta=0.70
     Davidson diagonalization with overlap
     ethr =  3.53E-10,  avg # of iterations =  2.0

     negative rho (up, down):  1.974E+00 0.000E+00

     total cpu time spent up to now is     6368.1 secs

     total energy              =   -7425.29415746 Ry
     Harris-Foulkes estimate   =   -7425.29415746 Ry
     estimated scf accuracy    <       0.00000029 Ry

     iteration # 22     ecut=    50.00 Ry     beta=0.70
     Davidson diagonalization with overlap
     ethr =  3.59E-11,  avg # of iterations =  3.0

     negative rho (up, down):  1.974E+00 0.000E+00

     total cpu time spent up to now is     6582.2 secs

     total energy              =   -7425.29415748 Ry
     Harris-Foulkes estimate   =   -7425.29415755 Ry
     estimated scf accuracy    <       0.00000020 Ry

     iteration # 23     ecut=    50.00 Ry     beta=0.70
     Davidson diagonalization with overlap
     ethr =  2.52E-11,  avg # of iterations =  3.0

     negative rho (up, down):  1.974E+00 0.000E+00

     total cpu time spent up to now is     6791.1 secs

     total energy              =   -7425.29415749 Ry
     Harris-Foulkes estimate   =   -7425.29415753 Ry
     estimated scf accuracy    <       0.00000013 Ry

     iteration # 24     ecut=    50.00 Ry     beta=0.70
     Davidson diagonalization with overlap
     ethr =  1.67E-11,  avg # of iterations =  2.0

     negative rho (up, down):  1.974E+00 0.000E+00

     total cpu time spent up to now is     6999.0 secs

     total energy              =   -7425.29415752 Ry
     Harris-Foulkes estimate   =   -7425.29415753 Ry
     estimated scf accuracy    <       0.00000015 Ry

     iteration # 25     ecut=    50.00 Ry     beta=0.70
     Davidson diagonalization with overlap
     ethr =  1.67E-11,  avg # of iterations =  2.0

     negative rho (up, down):  1.974E+00 0.000E+00

     total cpu time spent up to now is     7197.8 secs

     total energy              =   -7425.29415753 Ry
     Harris-Foulkes estimate   =   -7425.29415754 Ry
     estimated scf accuracy    <       0.00000005 Ry

     iteration # 26     ecut=    50.00 Ry     beta=0.70
     Davidson diagonalization with overlap
     ethr =  5.78E-12,  avg # of iterations =  2.0

     negative rho (up, down):  1.974E+00 0.000E+00

     total cpu time spent up to now is     7392.7 secs

     total energy              =   -7425.29415754 Ry
     Harris-Foulkes estimate   =   -7425.29415754 Ry
     estimated scf accuracy    <       0.00000001 Ry

     iteration # 27     ecut=    50.00 Ry     beta=0.70
     Davidson diagonalization with overlap
     ethr =  1.48E-12,  avg # of iterations =  3.0

     negative rho (up, down):  1.974E+00 0.000E+00

     total cpu time spent up to now is     7602.8 secs

     total energy              =   -7425.29415755 Ry
     Harris-Foulkes estimate   =   -7425.29415755 Ry
     estimated scf accuracy    <       0.00000002 Ry

     iteration # 28     ecut=    50.00 Ry     beta=0.70
     Davidson diagonalization with overlap
     ethr =  1.48E-12,  avg # of iterations =  1.0

     negative rho (up, down):  1.974E+00 0.000E+00

     total cpu time spent up to now is     7789.0 secs

     End of self-consistent calculation

          k = 0.2500 0.2500 0.0833 (167653 PWs)   bands (ev):

   -19.4057  -7.2236  -6.8298  -6.3014  -6.3010  -5.8716  -5.4628  -5.3695
    -5.3692  -5.1734  -5.1733  -5.0559  -5.0553  -4.9769  -4.9540  -4.8810
    -4.7960  -4.7923  -4.7535  -4.7533  -4.5925  -4.5758  -4.5747  -4.5744
    -4.5675  -4.5118  -4.5118  -4.4999  -4.4997  -4.4629  -4.4504  -4.4499
    -4.4081  -4.4080  -4.3746  -4.3733  -4.3216  -4.3212  -4.3106  -4.3094
    -4.3040  -4.2908  -4.2908  -4.2496  -4.2315  -4.2313  -4.2244  -4.2242
    -4.1922  -4.1425  -4.1273  -4.1270  -4.1238  -4.1230  -4.1153  -4.1098
    -4.1094  -4.1092  -4.0446  -4.0440  -3.9944  -3.9942  -3.9819  -3.9559
    -3.9557  -3.9361  -3.9333  -3.9327  -3.9285  -3.9256  -3.8766  -3.8765
    -3.8636  -3.8633  -3.7584  -3.7580  -3.7523  -3.7518  -3.7145  -3.7057
    -3.6912  -3.6613  -3.6612  -3.6326  -3.6323  -3.6111  -3.6106  -3.5972
    -3.5968  -3.5421  -3.5420  -3.5241  -3.5080  -3.4969  -3.4951  -3.4949
    -3.4940  -3.4675  -3.4664  -3.4394  -3.4299  -3.4285  -3.4076  -3.4064
    -3.3746  -3.3738  -3.3560  -3.3285  -3.3284  -3.2912  -3.2909  -3.2554
    -3.2480  -3.2473  -3.2333  -3.2330  -3.2281  -3.2280  -3.1896  -3.1794
    -3.1387  -3.1386  -3.1306  -3.1212  -3.1204  -3.1191  -3.0947  -3.0946
    -3.0734  -3.0731  -3.0726  -3.0459  -3.0457  -3.0382  -3.0355  -3.0353
    -2.9993  -2.9951  -2.9598  -2.9594  -2.9587  -2.9558  -2.9556  -2.8765
    -2.8665  -2.8622  -2.8619  -2.8606  -2.8604  -2.8558  -2.8554  -2.8551
    -2.8548  -2.8453  -2.8375  -2.8207  -2.8178  -2.8176  -2.8170  -2.8024
    -2.7977  -2.7597  -2.7589  -2.7587  -2.7547  -2.7543  -2.7361  -2.7359
    -2.7271  -2.7271  -2.7247  -2.6654  -2.6653  -2.6599  -2.6598  -2.6550
    -2.6547  -2.6268  -2.5675  -2.5663  -2.5659  -2.5640  -2.5526  -2.5506
    -2.5459  -2.5349  -2.5345  -2.4981  -2.4974  -2.4888  -2.4884  -2.4879
    -2.4875  -2.4482  -2.4479  -2.4381  -2.4379  -2.4365  -2.4362  -2.3946
    -2.3788  -2.3731  -2.3194  -2.3192  -2.3011  -2.2993  -2.2943  -2.2939
    -2.2454  -2.2448  -2.2214  -2.2055  -2.1911  -2.1903  -2.1898  -2.1681
    -2.1678  -2.1581  -2.1424  -2.1011  -2.1004  -2.0873  -2.0864  -2.0859
    -2.0752  -2.0748  -2.0599  -2.0593  -2.0592  -2.0548  -2.0503  -2.0498
    -2.0493  -2.0374  -2.0371  -2.0197  -2.0192  -2.0171  -2.0110  -2.0079
    -2.0078  -1.9842  -1.9839  -1.9731  -1.9706  -1.9673  -1.9657  -1.9279
    -1.8941  -1.8934  -1.8579  -1.8408  -1.8405  -1.8306  -1.8296  -1.8072
    -1.8060  -1.7922  -1.7911  -1.7901  -1.7894  -1.7873  -1.7862  -1.7546
    -1.7537  -1.7535  -1.7088  -1.7074  -1.6688  -1.6676  -1.6235  -1.6201
    -1.6097  -1.5851  -1.5848  -1.5775  -1.5680  -1.5596  -1.5506  -1.5418
    -1.5403  -1.5366  -1.5361  -1.5349  -1.5345  -1.5320  -1.5192  -1.5116
    -1.5080  -1.4837  -1.4730  -1.4648  -1.4639  -1.4386  -1.4381  -1.4352
    -1.4348  -1.4297  -1.4214  -1.4073  -1.4015  -1.3920  -1.3830  -1.3690
    -1.3653  -1.3551  -1.3479  -1.3243  -1.3240  -1.3161  -1.3102  -1.2804
    -1.2781  -1.2718  -1.2699  -1.2632  -1.2599  -1.2414  -1.2411  -1.2295
    -1.2225  -1.2217  -1.2096  -1.2091  -1.2084  -1.2042  -1.1941  -1.1836
    -1.1828  -1.1755  -1.1754  -1.1625  -1.1589  -1.1550  -1.1520  -1.1127
    -1.1099  -1.1043  -1.1035  -1.1030  -1.1012  -1.0634  -1.0465  -1.0462
    -1.0457  -1.0441  -1.0413  -1.0384  -1.0360  -1.0215  -1.0209  -0.9843
    -0.9830  -0.9770  -0.9767  -0.9541  -0.9539  -0.9441  -0.9144  -0.9067
    -0.8794  -0.8790  -0.8513  -0.8511  -0.8483  -0.8471  -0.8464  -0.8423
    -0.8372  -0.8370  -0.8326  -0.8322  -0.8003  -0.8002  -0.7823  -0.7797
    -0.7769  -0.7764  -0.7750  -0.7723  -0.7561  -0.4797  -0.4703  -0.4143
    -0.4098  -0.3746  -0.2142  -0.1489  -0.1486  -0.1157   0.1702   0.1712
     0.5001   0.5026   0.5992   0.5994   0.6403   0.6410   0.7835   0.7858
     0.9082   0.9100   0.9975   1.5953   1.6134   1.6143   1.6529   1.6587
     1.7015   1.7056   1.7833   1.7847   1.9908   1.9913   2.2254   2.3054
     2.3074   2.3222   2.7013   2.7048   2.7765   2.7772   2.7839   2.7843
     2.9349   2.9363   2.9790   3.0781   3.0798   3.3099   3.3130   3.4456
     3.4727   3.4736   3.7434   3.7447   3.8568   3.8762   3.8765   3.9244
     3.9518   4.0626   4.0637   4.2994   4.3008   4.3868   4.3889   4.5128
     4.5154   4.5354   4.5395   4.6584   4.9195   5.3273   5.3433   5.4386
     5.4442   5.4969   5.6219   5.6246   5.6381   5.6947   5.7174   5.7393
     5.7425   5.7921   5.7936   5.8360   5.9947   6.0547   6.0981   6.1049
     6.1209   6.1273   6.1336   6.1348   6.1451   6.1463   6.1705   6.2015

          k = 0.2500 0.2500-0.2500 (167588 PWs)   bands (ev):

   -19.4057  -7.2236  -6.8298  -6.3014  -6.3010  -5.8716  -5.4628  -5.3695
    -5.3692  -5.1734  -5.1733  -5.0559  -5.0553  -4.9769  -4.9540  -4.8810
    -4.7960  -4.7923  -4.7535  -4.7533  -4.5925  -4.5758  -4.5747  -4.5744
    -4.5675  -4.5118  -4.5118  -4.4999  -4.4997  -4.4629  -4.4504  -4.4499
    -4.4081  -4.4080  -4.3746  -4.3733  -4.3216  -4.3212  -4.3106  -4.3094
    -4.3040  -4.2908  -4.2908  -4.2496  -4.2315  -4.2313  -4.2244  -4.2242
    -4.1922  -4.1425  -4.1273  -4.1270  -4.1238  -4.1230  -4.1153  -4.1098
    -4.1094  -4.1092  -4.0446  -4.0440  -3.9944  -3.9942  -3.9819  -3.9559
    -3.9557  -3.9361  -3.9333  -3.9327  -3.9285  -3.9256  -3.8766  -3.8765
    -3.8635  -3.8633  -3.7584  -3.7580  -3.7523  -3.7518  -3.7145  -3.7057
    -3.6912  -3.6613  -3.6612  -3.6326  -3.6323  -3.6111  -3.6106  -3.5972
    -3.5968  -3.5421  -3.5420  -3.5241  -3.5080  -3.4969  -3.4951  -3.4949
    -3.4940  -3.4675  -3.4664  -3.4394  -3.4299  -3.4285  -3.4076  -3.4064
    -3.3746  -3.3738  -3.3560  -3.3285  -3.3284  -3.2912  -3.2909  -3.2554
    -3.2480  -3.2473  -3.2333  -3.2330  -3.2281  -3.2280  -3.1896  -3.1794
    -3.1387  -3.1386  -3.1306  -3.1212  -3.1204  -3.1191  -3.0947  -3.0946
    -3.0734  -3.0731  -3.0726  -3.0459  -3.0457  -3.0382  -3.0355  -3.0353
    -2.9993  -2.9951  -2.9598  -2.9594  -2.9587  -2.9558  -2.9556  -2.8765
    -2.8665  -2.8622  -2.8619  -2.8606  -2.8604  -2.8558  -2.8553  -2.8550
    -2.8548  -2.8453  -2.8375  -2.8207  -2.8178  -2.8176  -2.8170  -2.8024
    -2.7977  -2.7597  -2.7589  -2.7587  -2.7547  -2.7543  -2.7361  -2.7359
    -2.7271  -2.7271  -2.7247  -2.6654  -2.6653  -2.6599  -2.6598  -2.6550
    -2.6547  -2.6268  -2.5675  -2.5663  -2.5659  -2.5640  -2.5526  -2.5506
    -2.5459  -2.5349  -2.5345  -2.4981  -2.4974  -2.4888  -2.4884  -2.4879
    -2.4875  -2.4482  -2.4479  -2.4381  -2.4379  -2.4365  -2.4362  -2.3946
    -2.3788  -2.3731  -2.3194  -2.3192  -2.3011  -2.2993  -2.2943  -2.2939
    -2.2454  -2.2448  -2.2214  -2.2055  -2.1911  -2.1903  -2.1898  -2.1681
    -2.1678  -2.1581  -2.1424  -2.1011  -2.1004  -2.0873  -2.0864  -2.0859
    -2.0752  -2.0748  -2.0599  -2.0593  -2.0592  -2.0549  -2.0503  -2.0498
    -2.0493  -2.0374  -2.0371  -2.0197  -2.0192  -2.0171  -2.0110  -2.0079
    -2.0078  -1.9842  -1.9839  -1.9731  -1.9706  -1.9673  -1.9657  -1.9279
    -1.8941  -1.8934  -1.8579  -1.8408  -1.8405  -1.8306  -1.8296  -1.8072
    -1.8060  -1.7922  -1.7911  -1.7901  -1.7894  -1.7873  -1.7862  -1.7546
    -1.7537  -1.7535  -1.7088  -1.7074  -1.6688  -1.6676  -1.6235  -1.6201
    -1.6098  -1.5851  -1.5848  -1.5775  -1.5680  -1.5596  -1.5506  -1.5418
    -1.5403  -1.5366  -1.5361  -1.5349  -1.5345  -1.5320  -1.5192  -1.5116
    -1.5080  -1.4837  -1.4730  -1.4648  -1.4639  -1.4386  -1.4381  -1.4352
    -1.4348  -1.4297  -1.4214  -1.4073  -1.4015  -1.3920  -1.3830  -1.3690
    -1.3653  -1.3551  -1.3479  -1.3243  -1.3240  -1.3161  -1.3102  -1.2804
    -1.2781  -1.2718  -1.2699  -1.2632  -1.2599  -1.2414  -1.2411  -1.2295
    -1.2225  -1.2217  -1.2096  -1.2091  -1.2084  -1.2041  -1.1941  -1.1836
    -1.1828  -1.1755  -1.1754  -1.1625  -1.1588  -1.1550  -1.1520  -1.1127
    -1.1099  -1.1043  -1.1035  -1.1030  -1.1012  -1.0634  -1.0465  -1.0462
    -1.0457  -1.0441  -1.0413  -1.0384  -1.0360  -1.0215  -1.0209  -0.9843
    -0.9830  -0.9770  -0.9767  -0.9541  -0.9539  -0.9441  -0.9144  -0.9067
    -0.8794  -0.8790  -0.8513  -0.8511  -0.8483  -0.8471  -0.8465  -0.8423
    -0.8372  -0.8370  -0.8326  -0.8322  -0.8003  -0.8002  -0.7823  -0.7797
    -0.7769  -0.7764  -0.7749  -0.7723  -0.7561  -0.4797  -0.4703  -0.4143
    -0.4098  -0.3746  -0.2142  -0.1489  -0.1486  -0.1157   0.1702   0.1712
     0.5001   0.5026   0.5992   0.5994   0.6403   0.6410   0.7835   0.7858
     0.9082   0.9100   0.9975   1.5953   1.6134   1.6143   1.6529   1.6587
     1.7015   1.7056   1.7833   1.7847   1.9908   1.9913   2.2254   2.3054
     2.3074   2.3222   2.7013   2.7048   2.7765   2.7772   2.7839   2.7843
     2.9349   2.9363   2.9790   3.0781   3.0798   3.3099   3.3130   3.4456
     3.4727   3.4736   3.7434   3.7447   3.8568   3.8762   3.8765   3.9244
     3.9518   4.0626   4.0637   4.2994   4.3008   4.3868   4.3889   4.5128
     4.5154   4.5354   4.5395   4.6584   4.9156   5.3269   5.3406   5.4364
     5.4437   5.4842   5.6231   5.6248   5.6612   5.6986   5.7374   5.7391
     5.7468   5.7920   5.7936   5.8358   6.0296   6.0678   6.0719   6.1047
     6.1185   6.1271   6.1343   6.1360   6.1451   6.1462   6.1868   6.1982

          k =-0.2500-0.2500 0.0833 (167653 PWs)   bands (ev):

   -19.4057  -7.2236  -6.8298  -6.3014  -6.3010  -5.8716  -5.4628  -5.3695
    -5.3692  -5.1734  -5.1733  -5.0559  -5.0553  -4.9769  -4.9540  -4.8810
    -4.7960  -4.7923  -4.7535  -4.7533  -4.5925  -4.5758  -4.5747  -4.5744
    -4.5675  -4.5118  -4.5118  -4.4999  -4.4997  -4.4629  -4.4504  -4.4499
    -4.4081  -4.4080  -4.3746  -4.3733  -4.3216  -4.3212  -4.3106  -4.3094
    -4.3040  -4.2908  -4.2908  -4.2496  -4.2315  -4.2313  -4.2244  -4.2242
    -4.1922  -4.1425  -4.1273  -4.1270  -4.1238  -4.1230  -4.1153  -4.1098
    -4.1094  -4.1092  -4.0446  -4.0440  -3.9944  -3.9942  -3.9819  -3.9559
    -3.9557  -3.9361  -3.9333  -3.9327  -3.9285  -3.9256  -3.8766  -3.8765
    -3.8636  -3.8633  -3.7584  -3.7580  -3.7523  -3.7518  -3.7145  -3.7057
    -3.6912  -3.6613  -3.6612  -3.6326  -3.6323  -3.6111  -3.6106  -3.5972
    -3.5968  -3.5421  -3.5420  -3.5241  -3.5080  -3.4969  -3.4951  -3.4949
    -3.4940  -3.4675  -3.4664  -3.4394  -3.4299  -3.4285  -3.4076  -3.4064
    -3.3746  -3.3738  -3.3560  -3.3285  -3.3284  -3.2912  -3.2909  -3.2554
    -3.2480  -3.2473  -3.2333  -3.2330  -3.2281  -3.2280  -3.1896  -3.1794
    -3.1387  -3.1386  -3.1306  -3.1212  -3.1204  -3.1191  -3.0947  -3.0946
    -3.0734  -3.0731  -3.0726  -3.0459  -3.0457  -3.0382  -3.0355  -3.0353
    -2.9993  -2.9951  -2.9598  -2.9594  -2.9587  -2.9558  -2.9556  -2.8765
    -2.8665  -2.8622  -2.8619  -2.8606  -2.8604  -2.8558  -2.8554  -2.8551
    -2.8548  -2.8453  -2.8375  -2.8207  -2.8178  -2.8176  -2.8170  -2.8024
    -2.7977  -2.7597  -2.7589  -2.7587  -2.7547  -2.7543  -2.7361  -2.7359
    -2.7271  -2.7271  -2.7247  -2.6654  -2.6653  -2.6599  -2.6598  -2.6550
    -2.6547  -2.6268  -2.5675  -2.5663  -2.5659  -2.5640  -2.5526  -2.5506
    -2.5459  -2.5349  -2.5345  -2.4981  -2.4974  -2.4888  -2.4884  -2.4879
    -2.4875  -2.4482  -2.4479  -2.4381  -2.4379  -2.4365  -2.4362  -2.3946
    -2.3788  -2.3731  -2.3194  -2.3192  -2.3011  -2.2993  -2.2943  -2.2939
    -2.2454  -2.2448  -2.2214  -2.2055  -2.1911  -2.1903  -2.1898  -2.1681
    -2.1678  -2.1581  -2.1424  -2.1011  -2.1004  -2.0873  -2.0864  -2.0859
    -2.0752  -2.0748  -2.0599  -2.0593  -2.0592  -2.0548  -2.0503  -2.0498
    -2.0493  -2.0374  -2.0371  -2.0197  -2.0192  -2.0171  -2.0110  -2.0079
    -2.0078  -1.9842  -1.9839  -1.9731  -1.9706  -1.9673  -1.9657  -1.9279
    -1.8941  -1.8934  -1.8579  -1.8408  -1.8405  -1.8306  -1.8296  -1.8072
    -1.8060  -1.7922  -1.7911  -1.7901  -1.7894  -1.7873  -1.7862  -1.7546
    -1.7537  -1.7535  -1.7088  -1.7074  -1.6688  -1.6676  -1.6235  -1.6201
    -1.6097  -1.5851  -1.5848  -1.5775  -1.5680  -1.5596  -1.5506  -1.5418
    -1.5403  -1.5366  -1.5361  -1.5349  -1.5345  -1.5320  -1.5192  -1.5116
    -1.5080  -1.4837  -1.4730  -1.4648  -1.4639  -1.4386  -1.4381  -1.4352
    -1.4348  -1.4297  -1.4214  -1.4073  -1.4015  -1.3920  -1.3830  -1.3690
    -1.3653  -1.3551  -1.3479  -1.3243  -1.3240  -1.3161  -1.3102  -1.2804
    -1.2781  -1.2718  -1.2699  -1.2632  -1.2599  -1.2414  -1.2411  -1.2295
    -1.2225  -1.2217  -1.2096  -1.2091  -1.2084  -1.2042  -1.1941  -1.1836
    -1.1828  -1.1755  -1.1754  -1.1625  -1.1589  -1.1550  -1.1520  -1.1127
    -1.1099  -1.1043  -1.1035  -1.1030  -1.1012  -1.0634  -1.0465  -1.0462
    -1.0457  -1.0441  -1.0413  -1.0384  -1.0360  -1.0215  -1.0209  -0.9843
    -0.9830  -0.9770  -0.9767  -0.9541  -0.9539  -0.9441  -0.9144  -0.9067
    -0.8794  -0.8790  -0.8513  -0.8511  -0.8483  -0.8471  -0.8464  -0.8423
    -0.8372  -0.8370  -0.8326  -0.8322  -0.8003  -0.8002  -0.7823  -0.7797
    -0.7769  -0.7764  -0.7750  -0.7723  -0.7561  -0.4797  -0.4703  -0.4143
    -0.4098  -0.3746  -0.2142  -0.1489  -0.1486  -0.1157   0.1702   0.1712
     0.5001   0.5026   0.5992   0.5994   0.6403   0.6410   0.7835   0.7858
     0.9082   0.9100   0.9975   1.5953   1.6134   1.6143   1.6529   1.6587
     1.7015   1.7056   1.7833   1.7847   1.9908   1.9913   2.2254   2.3054
     2.3074   2.3222   2.7013   2.7048   2.7765   2.7772   2.7839   2.7843
     2.9349   2.9363   2.9790   3.0781   3.0798   3.3099   3.3130   3.4456
     3.4727   3.4736   3.7434   3.7447   3.8568   3.8762   3.8765   3.9244
     3.9518   4.0626   4.0637   4.2994   4.3008   4.3868   4.3889   4.5128
     4.5154   4.5354   4.5396   4.6584   4.9193   5.3275   5.3444   5.4384
     5.4441   5.4907   5.6224   5.6247   5.6461   5.6968   5.7163   5.7392
     5.7426   5.7922   5.7936   5.8361   5.9969   6.0527   6.0955   6.1046
     6.1208   6.1265   6.1338   6.1349   6.1451   6.1462   6.1571   6.1997

          k =-0.2500 0.2500-0.0833 (167653 PWs)   bands (ev):

   -19.4057  -7.2236  -6.8298  -6.3017  -6.3007  -5.8716  -5.4628  -5.3698
    -5.3688  -5.1735  -5.1732  -5.0564  -5.0548  -4.9769  -4.9541  -4.8810
    -4.7961  -4.7923  -4.7536  -4.7532  -4.5926  -4.5758  -4.5749  -4.5741
    -4.5675  -4.5119  -4.5117  -4.5002  -4.4995  -4.4629  -4.4508  -4.4496
    -4.4081  -4.4079  -4.3746  -4.3734  -4.3219  -4.3208  -4.3107  -4.3094
    -4.3040  -4.2908  -4.2908  -4.2497  -4.2316  -4.2312  -4.2246  -4.2241
    -4.1923  -4.1426  -4.1275  -4.1267  -4.1237  -4.1230  -4.1153  -4.1098
    -4.1095  -4.1092  -4.0450  -4.0435  -3.9949  -3.9938  -3.9819  -3.9560
    -3.9556  -3.9360  -3.9332  -3.9328  -3.9286  -3.9256  -3.8766  -3.8765
    -3.8638  -3.8630  -3.7588  -3.7576  -3.7525  -3.7514  -3.7145  -3.7057
    -3.6912  -3.6615  -3.6611  -3.6329  -3.6320  -3.6112  -3.6104  -3.5977
    -3.5964  -3.5423  -3.5417  -3.5248  -3.5080  -3.4974  -3.4952  -3.4948
    -3.4937  -3.4670  -3.4663  -3.4406  -3.4299  -3.4269  -3.4078  -3.4067
    -3.3747  -3.3737  -3.3560  -3.3285  -3.3282  -3.2913  -3.2908  -3.2555
    -3.2480  -3.2473  -3.2336  -3.2328  -3.2282  -3.2279  -3.1896  -3.1794
    -3.1387  -3.1386  -3.1306  -3.1213  -3.1204  -3.1190  -3.0948  -3.0946
    -3.0737  -3.0732  -3.0722  -3.0458  -3.0457  -3.0382  -3.0356  -3.0352
    -2.9993  -2.9951  -2.9602  -2.9592  -2.9587  -2.9559  -2.9555  -2.8765
    -2.8665  -2.8625  -2.8615  -2.8608  -2.8601  -2.8560  -2.8554  -2.8551
    -2.8546  -2.8453  -2.8375  -2.8207  -2.8180  -2.8178  -2.8167  -2.8023
    -2.7977  -2.7597  -2.7589  -2.7587  -2.7550  -2.7539  -2.7363  -2.7357
    -2.7273  -2.7270  -2.7247  -2.6654  -2.6652  -2.6599  -2.6597  -2.6552
    -2.6545  -2.6267  -2.5675  -2.5664  -2.5659  -2.5640  -2.5526  -2.5506
    -2.5459  -2.5350  -2.5343  -2.4985  -2.4969  -2.4894  -2.4885  -2.4878
    -2.4872  -2.4485  -2.4477  -2.4382  -2.4379  -2.4368  -2.4359  -2.3946
    -2.3788  -2.3731  -2.3196  -2.3190  -2.3009  -2.2994  -2.2944  -2.2938
    -2.2459  -2.2442  -2.2214  -2.2054  -2.1911  -2.1904  -2.1897  -2.1681
    -2.1677  -2.1581  -2.1424  -2.1012  -2.1002  -2.0871  -2.0867  -2.0855
    -2.0755  -2.0746  -2.0600  -2.0595  -2.0590  -2.0549  -2.0507  -2.0499
    -2.0486  -2.0376  -2.0369  -2.0195  -2.0191  -2.0171  -2.0110  -2.0082
    -2.0075  -1.9845  -1.9837  -1.9731  -1.9706  -1.9673  -1.9657  -1.9279
    -1.8941  -1.8934  -1.8579  -1.8409  -1.8404  -1.8311  -1.8291  -1.8075
    -1.8059  -1.7926  -1.7906  -1.7900  -1.7896  -1.7876  -1.7859  -1.7547
    -1.7536  -1.7535  -1.7089  -1.7074  -1.6690  -1.6673  -1.6236  -1.6201
    -1.6096  -1.5854  -1.5848  -1.5775  -1.5680  -1.5596  -1.5507  -1.5420
    -1.5396  -1.5369  -1.5360  -1.5349  -1.5345  -1.5320  -1.5193  -1.5117
    -1.5081  -1.4837  -1.4723  -1.4650  -1.4645  -1.4384  -1.4382  -1.4356
    -1.4345  -1.4294  -1.4212  -1.4076  -1.4008  -1.3925  -1.3831  -1.3690
    -1.3653  -1.3551  -1.3481  -1.3247  -1.3236  -1.3162  -1.3101  -1.2804
    -1.2773  -1.2720  -1.2697  -1.2634  -1.2600  -1.2416  -1.2409  -1.2295
    -1.2227  -1.2216  -1.2097  -1.2090  -1.2086  -1.2042  -1.1942  -1.1834
    -1.1829  -1.1757  -1.1753  -1.1626  -1.1590  -1.1550  -1.1521  -1.1128
    -1.1094  -1.1043  -1.1035  -1.1030  -1.1014  -1.0634  -1.0473  -1.0459
    -1.0455  -1.0441  -1.0420  -1.0375  -1.0361  -1.0214  -1.0209  -0.9846
    -0.9827  -0.9770  -0.9766  -0.9542  -0.9537  -0.9441  -0.9145  -0.9068
    -0.8798  -0.8786  -0.8514  -0.8510  -0.8483  -0.8471  -0.8465  -0.8423
    -0.8372  -0.8371  -0.8328  -0.8320  -0.8005  -0.7999  -0.7834  -0.7792
    -0.7768  -0.7761  -0.7749  -0.7720  -0.7561  -0.4797  -0.4703  -0.4161
    -0.4078  -0.3746  -0.2140  -0.1492  -0.1482  -0.1160   0.1697   0.1716
     0.4981   0.5044   0.5991   0.5996   0.6394   0.6422   0.7827   0.7867
     0.9081   0.9099   0.9976   1.5951   1.6135   1.6143   1.6516   1.6587
     1.6965   1.7114   1.7829   1.7854   1.9905   1.9915   2.2250   2.3028
     2.3096   2.3222   2.6961   2.7090   2.7762   2.7778   2.7833   2.7849
     2.9354   2.9359   2.9778   3.0784   3.0825   3.3097   3.3154   3.4452
     3.4720   3.4739   3.7422   3.7464   3.8547   3.8762   3.8767   3.9169
     3.9601   4.0615   4.0649   4.3001   4.3005   4.3831   4.3915   4.5103
     4.5166   4.5287   4.5436   4.6606   4.9183   5.3193   5.3502   5.4406
     5.4459   5.4953   5.6231   5.6261   5.6376   5.6959   5.7154   5.7374
     5.7440   5.7931   5.7939   5.8376   5.9930   6.0566   6.0982   6.1068
     6.1195   6.1220   6.1310   6.1378   6.1432   6.1451   6.1660   6.2008

          k = 0.2500-0.2500-0.0833 (167653 PWs)   bands (ev):

   -19.4057  -7.2236  -6.8298  -6.3017  -6.3007  -5.8716  -5.4628  -5.3698
    -5.3688  -5.1735  -5.1732  -5.0564  -5.0548  -4.9769  -4.9541  -4.8810
    -4.7961  -4.7923  -4.7536  -4.7532  -4.5926  -4.5758  -4.5749  -4.5741
    -4.5675  -4.5119  -4.5117  -4.5002  -4.4995  -4.4629  -4.4508  -4.4496
    -4.4081  -4.4079  -4.3746  -4.3734  -4.3219  -4.3208  -4.3107  -4.3094
    -4.3040  -4.2908  -4.2908  -4.2497  -4.2316  -4.2312  -4.2246  -4.2241
    -4.1923  -4.1426  -4.1275  -4.1267  -4.1237  -4.1230  -4.1153  -4.1098
    -4.1095  -4.1092  -4.0450  -4.0435  -3.9949  -3.9938  -3.9819  -3.9560
    -3.9556  -3.9360  -3.9332  -3.9328  -3.9286  -3.9256  -3.8766  -3.8765
    -3.8638  -3.8630  -3.7588  -3.7576  -3.7525  -3.7514  -3.7145  -3.7057
    -3.6912  -3.6615  -3.6611  -3.6329  -3.6320  -3.6112  -3.6104  -3.5977
    -3.5964  -3.5423  -3.5417  -3.5248  -3.5080  -3.4974  -3.4952  -3.4948
    -3.4937  -3.4670  -3.4663  -3.4406  -3.4299  -3.4269  -3.4078  -3.4067
    -3.3747  -3.3737  -3.3560  -3.3285  -3.3282  -3.2913  -3.2908  -3.2555
    -3.2480  -3.2473  -3.2336  -3.2328  -3.2282  -3.2279  -3.1896  -3.1794
    -3.1387  -3.1386  -3.1306  -3.1213  -3.1204  -3.1190  -3.0948  -3.0946
    -3.0737  -3.0732  -3.0722  -3.0458  -3.0457  -3.0382  -3.0356  -3.0352
    -2.9993  -2.9951  -2.9602  -2.9592  -2.9587  -2.9559  -2.9555  -2.8765
    -2.8665  -2.8625  -2.8615  -2.8608  -2.8601  -2.8560  -2.8554  -2.8551
    -2.8546  -2.8453  -2.8375  -2.8207  -2.8180  -2.8178  -2.8167  -2.8023
    -2.7977  -2.7597  -2.7589  -2.7587  -2.7550  -2.7539  -2.7363  -2.7357
    -2.7273  -2.7270  -2.7247  -2.6654  -2.6652  -2.6599  -2.6597  -2.6552
    -2.6545  -2.6267  -2.5675  -2.5664  -2.5659  -2.5640  -2.5526  -2.5506
    -2.5459  -2.5350  -2.5343  -2.4985  -2.4969  -2.4894  -2.4885  -2.4878
    -2.4872  -2.4485  -2.4477  -2.4382  -2.4379  -2.4368  -2.4359  -2.3946
    -2.3788  -2.3731  -2.3196  -2.3190  -2.3009  -2.2994  -2.2944  -2.2938
    -2.2459  -2.2442  -2.2214  -2.2054  -2.1911  -2.1904  -2.1897  -2.1681
    -2.1677  -2.1581  -2.1424  -2.1012  -2.1002  -2.0871  -2.0867  -2.0855
    -2.0755  -2.0746  -2.0600  -2.0595  -2.0590  -2.0549  -2.0507  -2.0499
    -2.0486  -2.0376  -2.0369  -2.0195  -2.0191  -2.0171  -2.0110  -2.0082
    -2.0075  -1.9845  -1.9837  -1.9731  -1.9706  -1.9673  -1.9657  -1.9279
    -1.8941  -1.8934  -1.8579  -1.8409  -1.8404  -1.8311  -1.8291  -1.8075
    -1.8059  -1.7926  -1.7907  -1.7900  -1.7896  -1.7876  -1.7859  -1.7547
    -1.7536  -1.7535  -1.7089  -1.7074  -1.6690  -1.6673  -1.6236  -1.6201
    -1.6096  -1.5854  -1.5848  -1.5775  -1.5680  -1.5596  -1.5507  -1.5420
    -1.5396  -1.5369  -1.5360  -1.5349  -1.5345  -1.5320  -1.5193  -1.5117
    -1.5081  -1.4837  -1.4723  -1.4650  -1.4645  -1.4384  -1.4382  -1.4356
    -1.4345  -1.4294  -1.4212  -1.4076  -1.4008  -1.3925  -1.3831  -1.3690
    -1.3653  -1.3551  -1.3481  -1.3247  -1.3236  -1.3162  -1.3101  -1.2804
    -1.2773  -1.2720  -1.2697  -1.2634  -1.2600  -1.2416  -1.2409  -1.2295
    -1.2227  -1.2216  -1.2097  -1.2090  -1.2086  -1.2042  -1.1942  -1.1834
    -1.1829  -1.1757  -1.1753  -1.1626  -1.1590  -1.1550  -1.1521  -1.1128
    -1.1094  -1.1043  -1.1035  -1.1030  -1.1014  -1.0634  -1.0473  -1.0459
    -1.0455  -1.0441  -1.0420  -1.0375  -1.0361  -1.0214  -1.0209  -0.9846
    -0.9827  -0.9770  -0.9766  -0.9542  -0.9537  -0.9441  -0.9145  -0.9068
    -0.8798  -0.8786  -0.8514  -0.8510  -0.8483  -0.8471  -0.8465  -0.8423
    -0.8372  -0.8371  -0.8328  -0.8320  -0.8005  -0.7999  -0.7834  -0.7792
    -0.7768  -0.7761  -0.7749  -0.7720  -0.7561  -0.4797  -0.4703  -0.4161
    -0.4078  -0.3746  -0.2140  -0.1492  -0.1482  -0.1160   0.1697   0.1716
     0.4981   0.5044   0.5991   0.5996   0.6394   0.6422   0.7827   0.7867
     0.9081   0.9099   0.9976   1.5951   1.6135   1.6143   1.6516   1.6587
     1.6965   1.7114   1.7829   1.7854   1.9905   1.9915   2.2250   2.3028
     2.3096   2.3222   2.6961   2.7090   2.7762   2.7778   2.7833   2.7849
     2.9354   2.9359   2.9778   3.0784   3.0825   3.3097   3.3154   3.4452
     3.4720   3.4739   3.7422   3.7464   3.8547   3.8762   3.8767   3.9169
     3.9601   4.0615   4.0649   4.3001   4.3005   4.3831   4.3915   4.5103
     4.5166   4.5287   4.5435   4.6606   4.9183   5.3196   5.3497   5.4401
     5.4460   5.4938   5.6235   5.6260   5.6431   5.6959   5.7128   5.7369
     5.7439   5.7931   5.7939   5.8376   5.9935   6.0499   6.0983   6.1074
     6.1190   6.1229   6.1311   6.1378   6.1431   6.1451   6.1695   6.2090

          k =-0.2500 0.2500 0.2500 (167588 PWs)   bands (ev):

   -19.4057  -7.2236  -6.8298  -6.3017  -6.3007  -5.8716  -5.4628  -5.3698
    -5.3688  -5.1734  -5.1732  -5.0564  -5.0548  -4.9769  -4.9541  -4.8810
    -4.7961  -4.7923  -4.7536  -4.7532  -4.5926  -4.5758  -4.5749  -4.5741
    -4.5675  -4.5119  -4.5117  -4.5002  -4.4995  -4.4629  -4.4508  -4.4496
    -4.4081  -4.4079  -4.3746  -4.3734  -4.3219  -4.3208  -4.3107  -4.3094
    -4.3040  -4.2908  -4.2908  -4.2497  -4.2316  -4.2312  -4.2246  -4.2241
    -4.1923  -4.1426  -4.1275  -4.1267  -4.1237  -4.1230  -4.1153  -4.1098
    -4.1095  -4.1092  -4.0450  -4.0435  -3.9949  -3.9938  -3.9819  -3.9559
    -3.9556  -3.9360  -3.9332  -3.9328  -3.9286  -3.9256  -3.8766  -3.8765
    -3.8638  -3.8630  -3.7588  -3.7576  -3.7525  -3.7514  -3.7145  -3.7057
    -3.6912  -3.6615  -3.6611  -3.6329  -3.6320  -3.6112  -3.6104  -3.5976
    -3.5964  -3.5423  -3.5418  -3.5248  -3.5080  -3.4974  -3.4952  -3.4948
    -3.4937  -3.4670  -3.4663  -3.4406  -3.4299  -3.4269  -3.4078  -3.4067
    -3.3747  -3.3737  -3.3560  -3.3285  -3.3282  -3.2913  -3.2908  -3.2555
    -3.2480  -3.2473  -3.2336  -3.2328  -3.2282  -3.2279  -3.1896  -3.1794
    -3.1387  -3.1386  -3.1306  -3.1213  -3.1204  -3.1190  -3.0948  -3.0946
    -3.0737  -3.0732  -3.0722  -3.0458  -3.0457  -3.0382  -3.0356  -3.0352
    -2.9993  -2.9951  -2.9602  -2.9592  -2.9587  -2.9559  -2.9555  -2.8765
    -2.8665  -2.8625  -2.8615  -2.8609  -2.8601  -2.8560  -2.8554  -2.8551
    -2.8546  -2.8453  -2.8375  -2.8207  -2.8180  -2.8178  -2.8167  -2.8023
    -2.7977  -2.7597  -2.7589  -2.7586  -2.7550  -2.7539  -2.7363  -2.7357
    -2.7273  -2.7270  -2.7247  -2.6654  -2.6652  -2.6599  -2.6597  -2.6552
    -2.6545  -2.6267  -2.5675  -2.5664  -2.5659  -2.5640  -2.5526  -2.5506
    -2.5459  -2.5350  -2.5343  -2.4985  -2.4969  -2.4894  -2.4885  -2.4878
    -2.4872  -2.4485  -2.4477  -2.4382  -2.4379  -2.4368  -2.4359  -2.3946
    -2.3788  -2.3731  -2.3196  -2.3190  -2.3010  -2.2994  -2.2944  -2.2938
    -2.2459  -2.2442  -2.2214  -2.2054  -2.1911  -2.1904  -2.1897  -2.1681
    -2.1677  -2.1581  -2.1424  -2.1012  -2.1002  -2.0871  -2.0867  -2.0855
    -2.0755  -2.0746  -2.0600  -2.0595  -2.0590  -2.0549  -2.0507  -2.0499
    -2.0486  -2.0376  -2.0369  -2.0195  -2.0191  -2.0171  -2.0110  -2.0082
    -2.0075  -1.9845  -1.9837  -1.9731  -1.9706  -1.9673  -1.9657  -1.9279
    -1.8941  -1.8934  -1.8579  -1.8409  -1.8404  -1.8311  -1.8291  -1.8075
    -1.8058  -1.7926  -1.7906  -1.7900  -1.7896  -1.7876  -1.7859  -1.7547
    -1.7536  -1.7535  -1.7089  -1.7074  -1.6691  -1.6673  -1.6236  -1.6201
    -1.6096  -1.5854  -1.5848  -1.5775  -1.5680  -1.5596  -1.5507  -1.5420
    -1.5396  -1.5369  -1.5360  -1.5349  -1.5345  -1.5320  -1.5193  -1.5117
    -1.5081  -1.4837  -1.4723  -1.4650  -1.4645  -1.4384  -1.4382  -1.4356
    -1.4345  -1.4294  -1.4212  -1.4076  -1.4008  -1.3925  -1.3831  -1.3690
    -1.3653  -1.3551  -1.3481  -1.3247  -1.3236  -1.3162  -1.3101  -1.2804
    -1.2773  -1.2720  -1.2697  -1.2634  -1.2600  -1.2416  -1.2409  -1.2295
    -1.2227  -1.2216  -1.2097  -1.2090  -1.2086  -1.2042  -1.1942  -1.1834
    -1.1829  -1.1757  -1.1753  -1.1626  -1.1590  -1.1550  -1.1521  -1.1128
    -1.1094  -1.1043  -1.1035  -1.1030  -1.1014  -1.0634  -1.0473  -1.0459
    -1.0455  -1.0441  -1.0420  -1.0375  -1.0361  -1.0214  -1.0209  -0.9846
    -0.9827  -0.9770  -0.9766  -0.9542  -0.9537  -0.9441  -0.9145  -0.9068
    -0.8798  -0.8786  -0.8514  -0.8510  -0.8483  -0.8471  -0.8465  -0.8423
    -0.8372  -0.8371  -0.8328  -0.8320  -0.8005  -0.7999  -0.7834  -0.7792
    -0.7768  -0.7761  -0.7749  -0.7719  -0.7561  -0.4797  -0.4703  -0.4161
    -0.4078  -0.3746  -0.2139  -0.1492  -0.1482  -0.1160   0.1697   0.1716
     0.4981   0.5044   0.5991   0.5996   0.6394   0.6422   0.7827   0.7867
     0.9081   0.9099   0.9976   1.5951   1.6135   1.6143   1.6516   1.6587
     1.6965   1.7114   1.7830   1.7854   1.9905   1.9915   2.2250   2.3028
     2.3096   2.3222   2.6961   2.7090   2.7762   2.7778   2.7833   2.7849
     2.9354   2.9359   2.9778   3.0784   3.0825   3.3097   3.3154   3.4452
     3.4721   3.4739   3.7422   3.7464   3.8547   3.8762   3.8767   3.9170
     3.9602   4.0615   4.0649   4.3001   4.3005   4.3831   4.3915   4.5103
     4.5166   4.5287   4.5435   4.6606   4.9145   5.3179   5.3480   5.4392
     5.4448   5.4848   5.6236   5.6260   5.6577   5.6954   5.7334   5.7406
     5.7517   5.7931   5.7939   5.8376   6.0260   6.0468   6.0946   6.1051
     6.1181   6.1303   6.1354   6.1388   6.1434   6.1452   6.1790   6.2117

     the Fermi energy is     0.8588 ev

!    total energy              =   -7425.29415755 Ry
     Harris-Foulkes estimate   =   -7425.29415755 Ry
     estimated scf accuracy    <          4.2E-09 Ry

     The total energy is the sum of the following terms:

     one-electron contribution =  -48598.12068210 Ry
     hartree contribution      =   24849.70385103 Ry
     xc contribution           =   -3604.20231191 Ry
     ewald contribution        =   19927.32783064 Ry
     smearing contrib. (-TS)   =      -0.00284521 Ry

     convergence has been achieved in  28 iterations

     Writing output data file 3465023.save

     init_run     :    112.46s CPU    121.99s WALL (       1 calls)
     electrons    :   7167.03s CPU   7666.17s WALL (       1 calls)

     Called by init_run:
     wfcinit      :     82.59s CPU     91.02s WALL (       1 calls)
     potinit      :      6.21s CPU      6.99s WALL (       1 calls)

     Called by electrons:
     c_bands      :   5858.68s CPU   6245.15s WALL (      29 calls)
     sum_band     :    849.76s CPU    927.55s WALL (      29 calls)
     v_of_rho     :     92.75s CPU    110.52s WALL (      29 calls)
     newd         :    378.93s CPU    395.26s WALL (      29 calls)
     mix_rho      :      2.82s CPU      3.42s WALL (      29 calls)
     vdW_energy   :     15.97s CPU     17.84s WALL (      29 calls)
     vdW_ffts     :     35.58s CPU     43.62s WALL (      58 calls)
     vdW_v        :     11.48s CPU     13.13s WALL (      29 calls)

     Called by c_bands:
     init_us_2    :     10.21s CPU     10.82s WALL (     354 calls)
     cegterg      :   5727.62s CPU   6111.17s WALL (     174 calls)

     Called by *egterg:
     h_psi        :   2262.37s CPU   2576.56s WALL (     878 calls)
     s_psi        :    236.54s CPU    240.29s WALL (     878 calls)
     g_psi        :      6.32s CPU      6.43s WALL (     698 calls)
     cdiaghg      :   1755.23s CPU   1765.43s WALL (     866 calls)

     Called by h_psi:
     add_vuspsi   :    240.54s CPU    248.46s WALL (     878 calls)

     General routines
     calbec       :    582.80s CPU    587.24s WALL (    1052 calls)
     fft          :    118.42s CPU    134.06s WALL (    1914 calls)
     ffts         :      1.06s CPU      1.32s WALL (      58 calls)
     fftw         :   1517.83s CPU   1819.87s WALL (  466414 calls)
     interpolate  :      2.87s CPU      3.67s WALL (      58 calls)
     davcio       :      0.00s CPU      0.17s WALL (       6 calls)

     Parallel routines
     fft_scatter  :    999.48s CPU   1222.34s WALL (  468386 calls)

     PWSCF        :     2h 1m CPU        2h10m WALL


   This run was terminated on:  23: 5: 7  29Aug2015            

=------------------------------------------------------------------------------=
   JOB DONE.
=------------------------------------------------------------------------------=
