Setting SGE environment for SCC

     Program PWSCF v.5.1.2 starts on 25Jun2015 at  4:14:48 

     This program is part of the open-source Quantum ESPRESSO suite
     for quantum simulation of materials; please cite
         "P. Giannozzi et al., J. Phys.:Condens. Matter 21 395502 (2009);
          URL http://www.quantum-espresso.org", 
     in publications or presentations arising from this work. More details at
     http://www.quantum-espresso.org/quote

     Parallel version (MPI), running on    32 processors
     R & G space division:  proc/nbgrp/npool/nimage =      32
     Reading input from top.O1.Au62.d.2.6.phi.45.psi.0.in
Warning: card &IONS ignored
Warning: card / ignored
Warning: card &CELL ignored
Warning: card / ignored

     Current dimensions of program PWSCF are:
     Max number of different atomic species (ntypx) = 10
     Max number of k-points (npk) =  40000
     Max angular momentum in pseudopotentials (lmaxx) =  3

     IMPORTANT: XC functional enforced from input :
     Exchange-correlation      = VDW-DF ( 1  4  4  0 1 0)
     Any further DFT definition will be discarded
     Please, verify this is what you really want


     Subspace diagonalization in iterative solution of the eigenvalue problem:
     a serial algorithm will be used


     Parallelization info
     --------------------
     sticks:   dense  smooth     PW     G-vecs:    dense   smooth      PW
     Min         578     289     74               118518    41891    5486
     Max         579     290     75               118533    41932    5497
     Sum       18505    9265   2385              3792731  1341081  175711


     Title: 
     top.O1.Au62.d.2.6.phi.45.psi.0                                             


     bravais-lattice index     =            8
     lattice parameter (alat)  =      24.1233  a.u.
     unit-cell volume          =   28076.2361 (a.u.)^3
     number of atoms/cell      =           75
     number of atomic types    =            3
     number of electrons       =       800.00
     number of Kohn-Sham states=          480
     kinetic-energy cutoff     =      50.0000  Ry
     charge density cutoff     =     400.0000  Ry
     convergence threshold     =      1.0E-08
     mixing beta               =       0.7000
     number of iterations used =            8  plain     mixing
     Exchange-correlation      = VDW-DF ( 1  4  4  0 1 0)

     celldm(1)=  24.123277  celldm(2)=   1.000000  celldm(3)=   2.000000
     celldm(4)=   0.000000  celldm(5)=   0.000000  celldm(6)=   0.000000

     crystal axes: (cart. coord. in units of alat)
               a(1) = (   1.000000   0.000000   0.000000 )  
               a(2) = (   0.000000   1.000000   0.000000 )  
               a(3) = (   0.000000   0.000000   2.000000 )  

     reciprocal axes: (cart. coord. in units 2 pi/alat)
               b(1) = (  1.000000  0.000000  0.000000 )  
               b(2) = (  0.000000  1.000000  0.000000 )  
               b(3) = (  0.000000  0.000000  0.500000 )  


     PseudoPot. # 1 for Au read from file:
     /home/scc/andrejb/qe/pseudo/Au.pbe-nd-van.UPF
     MD5 check sum: 458681b50f36d87ef23c61b04bba420a
     Pseudo is Ultrasoft + core correction, Zval = 11.0
     Generated by new atomic code, or converted to UPF format
     Using radial grid of  985 points,  3 beta functions with: 
                l(1) =   1
                l(2) =   2
                l(3) =   2
     Q(r) pseudized with  8 coefficients,  rinner =    1.100   1.100   1.100
                                                       1.100   1.100

     PseudoPot. # 2 for H  read from file:
     /home/scc/andrejb/qe/pseudo/H.pbe-van_ak.UPF
     MD5 check sum: 403db7282739603aa925980fa9b8608d
     Pseudo is Ultrasoft, Zval =  1.0
     Generated by new atomic code, or converted to UPF format
     Using radial grid of  615 points,  1 beta functions with: 
                l(1) =   0
     Q(r) pseudized with  8 coefficients,  rinner =    0.800

     PseudoPot. # 3 for O  read from file:
     /home/scc/andrejb/qe/pseudo/O.pbe-van_ak.UPF
     MD5 check sum: 4b8c549914a63cae506c6ff22b5af4fe
     Pseudo is Ultrasoft, Zval =  6.0
     Generated by new atomic code, or converted to UPF format
     Using radial grid of  737 points,  4 beta functions with: 
                l(1) =   0
                l(2) =   0
                l(3) =   1
                l(4) =   1
     Q(r) pseudized with  8 coefficients,  rinner =    0.800   0.800   0.800


     vdW kernel table read from file vdW_kernel_table
     MD5 check sum: 48e77a2e26edf626eeb0eaa751ad5cac

     atomic species   valence    mass     pseudopotential
        Au            11.00   196.96657     Au( 1.00)
        H              1.00     1.01000     H ( 1.00)
        O              6.00    16.00000     O ( 1.00)

     No symmetry found



   Cartesian axes

     site n.     atom                  positions (alat units)
         1           O   tau(   1) = (   0.4998324   0.3332216   0.7029927  )
         2           H   tau(   2) = (   0.4942419   0.2722342   0.7484866  )
         3           H   tau(   3) = (   0.5052408   0.3923724   0.7508503  )
         4           Au  tau(   4) = (   0.0000000   0.0000000   0.0000000  )
         5           Au  tau(   5) = (   0.3332217   0.0000000   0.0000000  )
         6           Au  tau(   6) = (   0.6664435   0.0000000   0.0000000  )
         7           Au  tau(   7) = (   0.1666109   0.1666109   0.0000000  )
         8           Au  tau(   8) = (   0.4998326   0.1666109   0.0000000  )
         9           Au  tau(   9) = (   0.8330542   0.1666109   0.0000000  )
        10           Au  tau(  10) = (   0.0000000   0.3332217   0.0000000  )
        11           Au  tau(  11) = (   0.3332217   0.3332217   0.0000000  )
        12           Au  tau(  12) = (   0.6664435   0.3332217   0.0000000  )
        13           Au  tau(  13) = (   0.1666109   0.4998326   0.0000000  )
        14           Au  tau(  14) = (   0.4998326   0.4998326   0.0000000  )
        15           Au  tau(  15) = (   0.8330542   0.4998326   0.0000000  )
        16           Au  tau(  16) = (   0.0000000   0.6664435   0.0000000  )
        17           Au  tau(  17) = (   0.3332217   0.6664435   0.0000000  )
        18           Au  tau(  18) = (   0.6664435   0.6664435   0.0000000  )
        19           Au  tau(  19) = (   0.1666109   0.8330542   0.0000000  )
        20           Au  tau(  20) = (   0.4998326   0.8330542   0.0000000  )
        21           Au  tau(  21) = (   0.8330542   0.8330542   0.0000000  )
        22           Au  tau(  22) = (   0.1666109   0.0000000   0.1666109  )
        23           Au  tau(  23) = (   0.4998326   0.0000000   0.1666109  )
        24           Au  tau(  24) = (   0.8330542   0.0000000   0.1666109  )
        25           Au  tau(  25) = (   0.0000000   0.1666109   0.1666109  )
        26           Au  tau(  26) = (   0.3332217   0.1666109   0.1666109  )
        27           Au  tau(  27) = (   0.6664435   0.1666109   0.1666109  )
        28           Au  tau(  28) = (   0.1666109   0.3332217   0.1666109  )
        29           Au  tau(  29) = (   0.4998326   0.3332217   0.1666109  )
        30           Au  tau(  30) = (   0.8330542   0.3332217   0.1666109  )
        31           Au  tau(  31) = (   0.0000000   0.4998326   0.1666109  )
        32           Au  tau(  32) = (   0.3332217   0.4998326   0.1666109  )
        33           Au  tau(  33) = (   0.6664435   0.4998326   0.1666109  )
        34           Au  tau(  34) = (   0.1666109   0.6664435   0.1666109  )
        35           Au  tau(  35) = (   0.4998326   0.6664435   0.1666109  )
        36           Au  tau(  36) = (   0.8330542   0.6664435   0.1666109  )
        37           Au  tau(  37) = (   0.0000000   0.8330542   0.1666109  )
        38           Au  tau(  38) = (   0.3332217   0.8330542   0.1666109  )
        39           Au  tau(  39) = (   0.6664435   0.8330542   0.1666109  )
        40           Au  tau(  40) = (  -0.0000182  -0.0000182   0.3335478  )
        41           Au  tau(  41) = (   0.3332215  -0.0000181   0.3335472  )
        42           Au  tau(  42) = (   0.6664447  -0.0000183   0.3335481  )
        43           Au  tau(  43) = (  -0.0000181   0.3332215   0.3335472  )
        44           Au  tau(  44) = (   0.3332215   0.3332215   0.3335468  )
        45           Au  tau(  45) = (   0.6664445   0.3332215   0.3335478  )
        46           Au  tau(  46) = (  -0.0000183   0.6664447   0.3335481  )
        47           Au  tau(  47) = (   0.3332215   0.6664445   0.3335478  )
        48           Au  tau(  48) = (   0.6664446   0.6664446   0.3335486  )
        49           Au  tau(  49) = (   0.1666097   0.1666097   0.3335483  )
        50           Au  tau(  50) = (   0.4998320   0.1666098   0.3335477  )
        51           Au  tau(  51) = (   0.8330732   0.1666096   0.3335481  )
        52           Au  tau(  52) = (   0.1666098   0.4998320   0.3335477  )
        53           Au  tau(  53) = (   0.4998321   0.4998321   0.3335470  )
        54           Au  tau(  54) = (   0.8330730   0.4998322   0.3335474  )
        55           Au  tau(  55) = (   0.1666096   0.8330732   0.3335481  )
        56           Au  tau(  56) = (   0.4998322   0.8330730   0.3335474  )
        57           Au  tau(  57) = (   0.8330731   0.8330731   0.3335478  )
        58           Au  tau(  58) = (   0.1666104  -0.0000111   0.4993095  )
        59           Au  tau(  59) = (   0.4998323  -0.0000112   0.4993099  )
        60           Au  tau(  60) = (   0.8330661  -0.0000111   0.4993009  )
        61           Au  tau(  61) = (  -0.0000111   0.1666104   0.4993095  )
        62           Au  tau(  62) = (   0.3332214   0.1666106   0.4993185  )
        63           Au  tau(  63) = (   0.6664437   0.1666106   0.4993187  )
        64           Au  tau(  64) = (   0.1666106   0.3332214   0.4993185  )
        65           Au  tau(  65) = (   0.4998324   0.3332216   0.4993185  )
        66           Au  tau(  66) = (   0.8330659   0.3332215   0.4993103  )
        67           Au  tau(  67) = (  -0.0000112   0.4998323   0.4993099  )
        68           Au  tau(  68) = (   0.3332216   0.4998324   0.4993185  )
        69           Au  tau(  69) = (   0.6664436   0.4998325   0.4993187  )
        70           Au  tau(  70) = (   0.1666106   0.6664437   0.4993187  )
        71           Au  tau(  71) = (   0.4998325   0.6664436   0.4993187  )
        72           Au  tau(  72) = (   0.8330658   0.6664438   0.4993102  )
        73           Au  tau(  73) = (  -0.0000111   0.8330661   0.4993009  )
        74           Au  tau(  74) = (   0.3332215   0.8330659   0.4993103  )
        75           Au  tau(  75) = (   0.6664438   0.8330658   0.4993102  )

     number of k points=     6  Marzari-Vanderbilt smearing, width (Ry)=  0.0200
                       cart. coord. in units 2pi/alat
        k(    1) = (   0.2500000   0.2500000   0.0833333), wk =   0.3333333
        k(    2) = (   0.2500000   0.2500000  -0.2500000), wk =   0.3333333
        k(    3) = (  -0.2500000  -0.2500000   0.0833333), wk =   0.3333333
        k(    4) = (  -0.2500000   0.2500000  -0.0833333), wk =   0.3333333
        k(    5) = (   0.2500000  -0.2500000  -0.0833333), wk =   0.3333333
        k(    6) = (  -0.2500000   0.2500000   0.2500000), wk =   0.3333333

     Dense  grid:  3792731 G-vectors     FFT dimensions: ( 160, 160, 320)

     Smooth grid:  1341081 G-vectors     FFT dimensions: ( 120, 120, 225)

     Largest allocated arrays     est. size (Mb)     dimensions
        Kohn-Sham Wavefunctions        38.58 Mb     (    5267,  480)
        NL pseudopotentials            76.03 Mb     (    5267,  946)
        Each V/rho on FFT grid          3.91 Mb     (  256000)
        Each G-vector array             0.90 Mb     (  118520)
        G-vector shells                 0.08 Mb     (   10286)
     Largest temporary arrays     est. size (Mb)     dimensions
        Auxiliary wavefunctions       154.31 Mb     (    5267, 1920)
        Each subspace H/S matrix       56.25 Mb     (    1920, 1920)
        Each <psi_i|beta_j> matrix      6.93 Mb     (     946,  480)
        Arrays for rho mixing          31.25 Mb     (  256000,    8)

     Initial potential from superposition of free atoms
     Check: negative starting charge=   -1.945117

     starting charge  799.16392, renormalised to  800.00000

     negative rho (up, down):  1.947E+00 0.000E+00


     ************************************************************************
     *
     * You are using vdW-DF for exchange-correlation in this calculation.
     * Please cite the following three references that made this development
     * possible:
     *
     *   M. Dion, H. Rydberg, E. Schroder, D. C. Langreth, and
     *   B. I. Lundqvist, Phys. Rev. Lett. 92, 246401 (2004).
     *
     *   T. Thonhauser, V. R. Cooper, S. Li, A. Puzder, P. Hyldgaard, and
     *   D. C. Langreth, Phys. Rev. B 76, 125112 (2007).
     *
     *   G. Roman-Perez and J. M. Soler, Phys. Rev. Lett. 103, 096102 (2009).
     *
     *
     * If you are using vdW-DF2, please also cite:
     *
     *   K. Lee, E. D. Murray, L. Kong, B. I. Lundqvist, and
     *   D. C. Langreth, Phys. Rev. B 82, 081101(R) (2010).
     *
     *
     * If you are calculating the stress with vdW-DF, please also cite:
     *
     *   R. Sabatini, E. Kucukbenli, B. Kolb, T. Thonhauser, and
     *   S. de Gironcoli, J. Phys.: Condens. Matter 24, 424209 (2012).
     *
     ************************************************************************

     Carrying out vdW-DF run using the following parameters:

     Nqs =      20    Nr_points =    1024   r_max =   100.000
     q_mesh =
               0.00001000     0.04494208     0.09755937     0.15916263
               0.23128650     0.31572767     0.41458969     0.53033537
               0.66584808     0.82450364     1.01025438     1.22772762
               1.48234092     1.78043706     2.12944203     2.53805004
               3.01644009     3.57652955     4.23227104     5.00000000

     Gradients computed in reciprocal space

     ************************************************************************


     Starting wfc are  654 randomized atomic wfcs

     total cpu time spent up to now is      118.7 secs

     Self-consistent Calculation

     iteration #  1     ecut=    50.00 Ry     beta=0.70
     Davidson diagonalization with overlap
     ethr =  1.00E-02,  avg # of iterations =  3.0

     Threshold (ethr) on eigenvalues was too large:
     Diagonalizing with lowered threshold

     Davidson diagonalization with overlap
     ethr =  4.31E-04,  avg # of iterations =  2.3

     negative rho (up, down):  1.947E+00 0.000E+00

     total cpu time spent up to now is      521.2 secs

     total energy              =   -7422.98725524 Ry
     Harris-Foulkes estimate   =   -7426.09065972 Ry
     estimated scf accuracy    <       3.82893646 Ry

     iteration #  2     ecut=    50.00 Ry     beta=0.70
     Davidson diagonalization with overlap
     ethr =  4.79E-04,  avg # of iterations = 11.2

     negative rho (up, down):  1.941E+00 0.000E+00

     total cpu time spent up to now is     1272.6 secs

     total energy              =   -7414.16115303 Ry
     Harris-Foulkes estimate   =   -7432.91745983 Ry
     estimated scf accuracy    <     100.84962203 Ry

     iteration #  3     ecut=    50.00 Ry     beta=0.70
     Davidson diagonalization with overlap
     ethr =  4.79E-04,  avg # of iterations =  6.0

     negative rho (up, down):  1.951E+00 0.000E+00

     total cpu time spent up to now is     1714.5 secs

     total energy              =   -7424.34882352 Ry
     Harris-Foulkes estimate   =   -7425.88161112 Ry
     estimated scf accuracy    <       6.01153800 Ry

     iteration #  4     ecut=    50.00 Ry     beta=0.70
     Davidson diagonalization with overlap
     ethr =  4.79E-04,  avg # of iterations =  5.3

     negative rho (up, down):  1.955E+00 0.000E+00

     total cpu time spent up to now is     1958.1 secs

     total energy              =   -7424.54585447 Ry
     Harris-Foulkes estimate   =   -7425.95392585 Ry
     estimated scf accuracy    <      11.82838103 Ry

     iteration #  5     ecut=    50.00 Ry     beta=0.70
     Davidson diagonalization with overlap
     ethr =  4.79E-04,  avg # of iterations =  5.5

     negative rho (up, down):  1.963E+00 0.000E+00

     total cpu time spent up to now is     2195.6 secs

     total energy              =   -7425.24124821 Ry
     Harris-Foulkes estimate   =   -7425.40081134 Ry
     estimated scf accuracy    <       0.80456526 Ry

     iteration #  6     ecut=    50.00 Ry     beta=0.70
     Davidson diagonalization with overlap
     ethr =  1.01E-04,  avg # of iterations =  4.7

     negative rho (up, down):  1.967E+00 0.000E+00

     total cpu time spent up to now is     2418.9 secs

     total energy              =   -7425.27696271 Ry
     Harris-Foulkes estimate   =   -7425.31925494 Ry
     estimated scf accuracy    <       0.14698228 Ry

     iteration #  7     ecut=    50.00 Ry     beta=0.70
     Davidson diagonalization with overlap
     ethr =  1.84E-05,  avg # of iterations = 11.0

     negative rho (up, down):  1.969E+00 0.000E+00

     total cpu time spent up to now is     2749.8 secs

     total energy              =   -7425.27979434 Ry
     Harris-Foulkes estimate   =   -7425.31009630 Ry
     estimated scf accuracy    <       0.13425740 Ry

     iteration #  8     ecut=    50.00 Ry     beta=0.70
     Davidson diagonalization with overlap
     ethr =  1.68E-05,  avg # of iterations =  3.0

     negative rho (up, down):  1.971E+00 0.000E+00

     total cpu time spent up to now is     2956.9 secs

     total energy              =   -7425.28200005 Ry
     Harris-Foulkes estimate   =   -7425.30341412 Ry
     estimated scf accuracy    <       0.09142974 Ry

     iteration #  9     ecut=    50.00 Ry     beta=0.70
     Davidson diagonalization with overlap
     ethr =  1.14E-05,  avg # of iterations =  4.7

     negative rho (up, down):  1.972E+00 0.000E+00

     total cpu time spent up to now is     3181.8 secs

     total energy              =   -7425.28912427 Ry
     Harris-Foulkes estimate   =   -7425.29586823 Ry
     estimated scf accuracy    <       0.02249177 Ry

     iteration # 10     ecut=    50.00 Ry     beta=0.70
     Davidson diagonalization with overlap
     ethr =  2.81E-06,  avg # of iterations = 10.3

     negative rho (up, down):  1.972E+00 0.000E+00

     total cpu time spent up to now is     3504.7 secs

     total energy              =   -7425.29222957 Ry
     Harris-Foulkes estimate   =   -7425.29375207 Ry
     estimated scf accuracy    <       0.00434896 Ry

     iteration # 11     ecut=    50.00 Ry     beta=0.70
     Davidson diagonalization with overlap
     ethr =  5.44E-07,  avg # of iterations =  9.2

     negative rho (up, down):  1.973E+00 0.000E+00

     total cpu time spent up to now is     3805.6 secs

     total energy              =   -7425.29285980 Ry
     Harris-Foulkes estimate   =   -7425.29337790 Ry
     estimated scf accuracy    <       0.00140608 Ry

     iteration # 12     ecut=    50.00 Ry     beta=0.70
     Davidson diagonalization with overlap
     ethr =  1.76E-07,  avg # of iterations =  2.0

     negative rho (up, down):  1.973E+00 0.000E+00

     total cpu time spent up to now is     3989.9 secs

     total energy              =   -7425.29303010 Ry
     Harris-Foulkes estimate   =   -7425.29322890 Ry
     estimated scf accuracy    <       0.00073363 Ry

     iteration # 13     ecut=    50.00 Ry     beta=0.70
     Davidson diagonalization with overlap
     ethr =  9.17E-08,  avg # of iterations =  2.0

     negative rho (up, down):  1.974E+00 0.000E+00

     total cpu time spent up to now is     4177.9 secs

     total energy              =   -7425.29308041 Ry
     Harris-Foulkes estimate   =   -7425.29322250 Ry
     estimated scf accuracy    <       0.00072337 Ry

     iteration # 14     ecut=    50.00 Ry     beta=0.70
     Davidson diagonalization with overlap
     ethr =  9.04E-08,  avg # of iterations =  2.0

     negative rho (up, down):  1.974E+00 0.000E+00

     total cpu time spent up to now is     4359.7 secs

     total energy              =   -7425.29314174 Ry
     Harris-Foulkes estimate   =   -7425.29316768 Ry
     estimated scf accuracy    <       0.00009683 Ry

     iteration # 15     ecut=    50.00 Ry     beta=0.70
     Davidson diagonalization with overlap
     ethr =  1.21E-08,  avg # of iterations =  2.0

     negative rho (up, down):  1.974E+00 0.000E+00

     total cpu time spent up to now is     4551.4 secs

     total energy              =   -7425.29314648 Ry
     Harris-Foulkes estimate   =   -7425.29316335 Ry
     estimated scf accuracy    <       0.00005761 Ry

     iteration # 16     ecut=    50.00 Ry     beta=0.70
     Davidson diagonalization with overlap
     ethr =  7.20E-09,  avg # of iterations =  3.0

     negative rho (up, down):  1.974E+00 0.000E+00

     total cpu time spent up to now is     4757.9 secs

     total energy              =   -7425.29314240 Ry
     Harris-Foulkes estimate   =   -7425.29317235 Ry
     estimated scf accuracy    <       0.00023472 Ry

     iteration # 17     ecut=    50.00 Ry     beta=0.70
     Davidson diagonalization with overlap
     ethr =  7.20E-09,  avg # of iterations =  2.0

     negative rho (up, down):  1.974E+00 0.000E+00

     total cpu time spent up to now is     4938.1 secs

     total energy              =   -7425.29315428 Ry
     Harris-Foulkes estimate   =   -7425.29315859 Ry
     estimated scf accuracy    <       0.00001735 Ry

     iteration # 18     ecut=    50.00 Ry     beta=0.70
     Davidson diagonalization with overlap
     ethr =  2.17E-09,  avg # of iterations =  2.0

     negative rho (up, down):  1.974E+00 0.000E+00

     total cpu time spent up to now is     5116.7 secs

     total energy              =   -7425.29315579 Ry
     Harris-Foulkes estimate   =   -7425.29315729 Ry
     estimated scf accuracy    <       0.00000580 Ry

     iteration # 19     ecut=    50.00 Ry     beta=0.70
     Davidson diagonalization with overlap
     ethr =  7.25E-10,  avg # of iterations =  2.0

     negative rho (up, down):  1.974E+00 0.000E+00

     total cpu time spent up to now is     5299.0 secs

     total energy              =   -7425.29315600 Ry
     Harris-Foulkes estimate   =   -7425.29315688 Ry
     estimated scf accuracy    <       0.00000258 Ry

     iteration # 20     ecut=    50.00 Ry     beta=0.70
     Davidson diagonalization with overlap
     ethr =  3.23E-10,  avg # of iterations =  2.0

     negative rho (up, down):  1.974E+00 0.000E+00

     total cpu time spent up to now is     5477.2 secs

     total energy              =   -7425.29315607 Ry
     Harris-Foulkes estimate   =   -7425.29315645 Ry
     estimated scf accuracy    <       0.00000049 Ry

     iteration # 21     ecut=    50.00 Ry     beta=0.70
     Davidson diagonalization with overlap
     ethr =  6.12E-11,  avg # of iterations =  2.0

     negative rho (up, down):  1.974E+00 0.000E+00

     total cpu time spent up to now is     5655.3 secs

     total energy              =   -7425.29315605 Ry
     Harris-Foulkes estimate   =   -7425.29315617 Ry
     estimated scf accuracy    <       0.00000008 Ry

     iteration # 22     ecut=    50.00 Ry     beta=0.70
     Davidson diagonalization with overlap
     ethr =  1.02E-11,  avg # of iterations =  3.0

     negative rho (up, down):  1.974E+00 0.000E+00

     total cpu time spent up to now is     5877.6 secs

     total energy              =   -7425.29315599 Ry
     Harris-Foulkes estimate   =   -7425.29315608 Ry
     estimated scf accuracy    <       0.00000008 Ry

     iteration # 23     ecut=    50.00 Ry     beta=0.70
     Davidson diagonalization with overlap
     ethr =  9.59E-12,  avg # of iterations =  3.0

     negative rho (up, down):  1.974E+00 0.000E+00

     total cpu time spent up to now is     6065.6 secs

     total energy              =   -7425.29315595 Ry
     Harris-Foulkes estimate   =   -7425.29315601 Ry
     estimated scf accuracy    <       0.00000008 Ry

     iteration # 24     ecut=    50.00 Ry     beta=0.70
     Davidson diagonalization with overlap
     ethr =  9.59E-12,  avg # of iterations =  2.0

     negative rho (up, down):  1.974E+00 0.000E+00

     total cpu time spent up to now is     6287.2 secs

     total energy              =   -7425.29315593 Ry
     Harris-Foulkes estimate   =   -7425.29315596 Ry
     estimated scf accuracy    <       0.00000003 Ry

     iteration # 25     ecut=    50.00 Ry     beta=0.70
     Davidson diagonalization with overlap
     ethr =  3.83E-12,  avg # of iterations =  2.0

     negative rho (up, down):  1.974E+00 0.000E+00

     total cpu time spent up to now is     6521.2 secs

     total energy              =   -7425.29315591 Ry
     Harris-Foulkes estimate   =   -7425.29315594 Ry
     estimated scf accuracy    <       0.00000002 Ry

     iteration # 26     ecut=    50.00 Ry     beta=0.70
     Davidson diagonalization with overlap
     ethr =  1.97E-12,  avg # of iterations =  2.0

     negative rho (up, down):  1.974E+00 0.000E+00

     total cpu time spent up to now is     6739.4 secs

     total energy              =   -7425.29315592 Ry
     Harris-Foulkes estimate   =   -7425.29315592 Ry
     estimated scf accuracy    <       0.00000002 Ry

     iteration # 27     ecut=    50.00 Ry     beta=0.70
     Davidson diagonalization with overlap
     ethr =  1.97E-12,  avg # of iterations =  1.7

     negative rho (up, down):  1.974E+00 0.000E+00

     total cpu time spent up to now is     6918.2 secs

     End of self-consistent calculation

          k = 0.2500 0.2500 0.0833 (167653 PWs)   bands (ev):

   -20.3248  -8.1015  -6.6924  -6.1642  -6.1640  -5.7349  -5.3431  -5.2407
    -5.2320  -5.0757  -5.0348  -5.0191  -4.9192  -4.8711  -4.8382  -4.7996
    -4.7386  -4.6575  -4.6517  -4.6148  -4.6072  -4.4546  -4.4370  -4.4354
    -4.4332  -4.4289  -4.3734  -4.3708  -4.3623  -4.3580  -4.3240  -4.3134
    -4.3026  -4.2695  -4.2655  -4.2361  -4.2349  -4.1842  -4.1822  -4.1732
    -4.1707  -4.1652  -4.1521  -4.1501  -4.1115  -4.0930  -4.0924  -4.0863
    -4.0847  -4.0534  -4.0037  -3.9893  -3.9875  -3.9855  -3.9824  -3.9739
    -3.9714  -3.9704  -3.9681  -3.9078  -3.9055  -3.8570  -3.8509  -3.8436
    -3.8176  -3.8174  -3.7963  -3.7941  -3.7916  -3.7905  -3.7876  -3.7384
    -3.7363  -3.7257  -3.7243  -3.6211  -3.6185  -3.6146  -3.6108  -3.5750
    -3.5702  -3.5521  -3.5235  -3.5205  -3.4948  -3.4911  -3.4729  -3.4723
    -3.4599  -3.4586  -3.4039  -3.4024  -3.3887  -3.3687  -3.3606  -3.3569
    -3.3565  -3.3562  -3.3292  -3.3287  -3.2929  -3.2889  -3.2713  -3.2704
    -3.2383  -3.2366  -3.2190  -3.1923  -3.1902  -3.1533  -3.1529  -3.1175
    -3.1088  -3.1086  -3.0960  -3.0953  -3.0897  -3.0880  -3.0536  -3.0410
    -3.0015  -3.0004  -2.9917  -2.9831  -2.9818  -2.9778  -2.9570  -2.9565
    -2.9363  -2.9355  -2.9332  -2.9090  -2.9080  -2.9004  -2.8986  -2.8960
    -2.8616  -2.8578  -2.8225  -2.8220  -2.8206  -2.8184  -2.8178  -2.7377
    -2.7285  -2.7249  -2.7244  -2.7229  -2.7228  -2.7196  -2.7169  -2.7164
    -2.7159  -2.7068  -2.6988  -2.6866  -2.6823  -2.6790  -2.6749  -2.6664
    -2.6639  -2.6219  -2.6208  -2.6200  -2.6188  -2.6170  -2.5986  -2.5973
    -2.5921  -2.5896  -2.5860  -2.5479  -2.5280  -2.5259  -2.5216  -2.5206
    -2.5143  -2.4916  -2.4597  -2.4290  -2.4266  -2.4262  -2.4244  -2.4141
    -2.4070  -2.4050  -2.3974  -2.3908  -2.3614  -2.3585  -2.3522  -2.3515
    -2.3488  -2.3355  -2.3107  -2.3097  -2.3007  -2.3000  -2.2991  -2.2882
    -2.2553  -2.2358  -2.2285  -2.1814  -2.1805  -2.1644  -2.1603  -2.1564
    -2.1452  -2.1088  -2.1035  -2.0835  -2.0680  -2.0536  -2.0527  -2.0505
    -2.0305  -2.0275  -2.0205  -2.0016  -1.9651  -1.9627  -1.9499  -1.9492
    -1.9478  -1.9375  -1.9358  -1.9244  -1.9212  -1.9192  -1.9164  -1.9146
    -1.9111  -1.9094  -1.9003  -1.8990  -1.8818  -1.8804  -1.8791  -1.8725
    -1.8698  -1.8679  -1.8468  -1.8458  -1.8346  -1.8332  -1.8284  -1.8216
    -1.7875  -1.7572  -1.7528  -1.7201  -1.7038  -1.7029  -1.6923  -1.6905
    -1.6700  -1.6667  -1.6545  -1.6531  -1.6529  -1.6510  -1.6471  -1.6411
    -1.6164  -1.6149  -1.6117  -1.5707  -1.5668  -1.5301  -1.5293  -1.4830
    -1.4814  -1.4686  -1.4472  -1.4406  -1.4398  -1.4232  -1.4211  -1.4049
    -1.4039  -1.4003  -1.3998  -1.3990  -1.3979  -1.3932  -1.3904  -1.3740
    -1.3731  -1.3581  -1.3467  -1.3286  -1.3270  -1.3018  -1.3002  -1.2989
    -1.2984  -1.2942  -1.2866  -1.2701  -1.2672  -1.2557  -1.2478  -1.2367
    -1.2321  -1.2178  -1.2107  -1.1877  -1.1867  -1.1798  -1.1754  -1.1435
    -1.1422  -1.1343  -1.1317  -1.1262  -1.1192  -1.1039  -1.1035  -1.0928
    -1.0848  -1.0833  -1.0730  -1.0720  -1.0716  -1.0627  -1.0576  -1.0461
    -1.0442  -1.0375  -1.0367  -1.0265  -1.0209  -1.0151  -1.0118  -0.9748
    -0.9730  -0.9674  -0.9655  -0.9644  -0.9559  -0.9265  -0.9102  -0.9092
    -0.9078  -0.9060  -0.9030  -0.8982  -0.8963  -0.8829  -0.8735  -0.8484
    -0.8397  -0.8392  -0.8323  -0.8164  -0.8151  -0.8065  -0.7773  -0.7695
    -0.7419  -0.7407  -0.7140  -0.7134  -0.7100  -0.7093  -0.7079  -0.7031
    -0.6993  -0.6963  -0.6945  -0.6944  -0.6632  -0.6622  -0.6466  -0.6423
    -0.6393  -0.6391  -0.6376  -0.6186  -0.6078  -0.3439  -0.3319  -0.2817
    -0.2540  -0.2342  -0.0770  -0.0119  -0.0101   0.0302   0.3062   0.3162
     0.6320   0.6544   0.7363   0.7382   0.7756   0.7823   0.9168   0.9386
     1.0460   1.0486   1.1378   1.7322   1.7515   1.7525   1.7889   1.7960
     1.8250   1.8511   1.9169   1.9393   2.1266   2.1334   2.3605   2.4365
     2.4588   2.4610   2.8274   2.8508   2.9130   2.9167   2.9207   2.9263
     3.0723   3.0739   3.0847   3.2064   3.2275   3.4449   3.4577   3.5822
     3.6066   3.6229   3.8739   3.8886   3.9704   3.9974   4.0136   4.0192
     4.0498   4.1975   4.2022   4.4362   4.4377   4.4939   4.5220   4.5812
     4.6475   4.6488   4.6623   4.7173   4.8772   5.3792   5.4273   5.4502
     5.5539   5.5851   5.6102   5.6534   5.7554   5.7610   5.7716   5.8691
     5.8743   5.9271   5.9288   5.9683   6.0036   6.0331   6.0836   6.1454
     6.1981   6.2238   6.2402   6.2491   6.2536   6.2637   6.2731   6.2844

          k = 0.2500 0.2500-0.2500 (167588 PWs)   bands (ev):

   -20.3248  -8.1015  -6.6924  -6.1642  -6.1640  -5.7349  -5.3431  -5.2407
    -5.2320  -5.0757  -5.0348  -5.0191  -4.9192  -4.8711  -4.8382  -4.7997
    -4.7386  -4.6575  -4.6517  -4.6148  -4.6072  -4.4546  -4.4370  -4.4354
    -4.4332  -4.4289  -4.3734  -4.3708  -4.3623  -4.3580  -4.3241  -4.3134
    -4.3026  -4.2695  -4.2655  -4.2361  -4.2349  -4.1842  -4.1822  -4.1733
    -4.1707  -4.1653  -4.1521  -4.1501  -4.1115  -4.0930  -4.0924  -4.0863
    -4.0847  -4.0534  -4.0037  -3.9893  -3.9875  -3.9855  -3.9824  -3.9739
    -3.9714  -3.9704  -3.9681  -3.9078  -3.9055  -3.8570  -3.8509  -3.8436
    -3.8176  -3.8174  -3.7963  -3.7941  -3.7916  -3.7905  -3.7876  -3.7384
    -3.7363  -3.7257  -3.7243  -3.6211  -3.6186  -3.6147  -3.6108  -3.5750
    -3.5702  -3.5521  -3.5235  -3.5205  -3.4948  -3.4911  -3.4729  -3.4723
    -3.4599  -3.4586  -3.4039  -3.4024  -3.3887  -3.3687  -3.3606  -3.3569
    -3.3565  -3.3562  -3.3292  -3.3287  -3.2929  -3.2889  -3.2713  -3.2704
    -3.2383  -3.2365  -3.2190  -3.1923  -3.1902  -3.1533  -3.1529  -3.1175
    -3.1088  -3.1086  -3.0960  -3.0953  -3.0897  -3.0879  -3.0536  -3.0410
    -3.0014  -3.0004  -2.9917  -2.9831  -2.9818  -2.9778  -2.9570  -2.9565
    -2.9363  -2.9355  -2.9332  -2.9090  -2.9079  -2.9004  -2.8986  -2.8959
    -2.8616  -2.8578  -2.8225  -2.8220  -2.8206  -2.8184  -2.8178  -2.7377
    -2.7285  -2.7249  -2.7244  -2.7229  -2.7228  -2.7196  -2.7169  -2.7164
    -2.7159  -2.7068  -2.6988  -2.6866  -2.6823  -2.6790  -2.6749  -2.6664
    -2.6639  -2.6219  -2.6208  -2.6200  -2.6187  -2.6170  -2.5986  -2.5973
    -2.5921  -2.5896  -2.5860  -2.5479  -2.5280  -2.5259  -2.5216  -2.5206
    -2.5143  -2.4916  -2.4597  -2.4290  -2.4266  -2.4262  -2.4244  -2.4141
    -2.4070  -2.4050  -2.3974  -2.3908  -2.3614  -2.3585  -2.3522  -2.3515
    -2.3488  -2.3355  -2.3107  -2.3097  -2.3007  -2.3000  -2.2991  -2.2882
    -2.2553  -2.2358  -2.2285  -2.1814  -2.1805  -2.1644  -2.1603  -2.1564
    -2.1452  -2.1088  -2.1035  -2.0836  -2.0680  -2.0536  -2.0527  -2.0505
    -2.0305  -2.0275  -2.0205  -2.0017  -1.9651  -1.9627  -1.9499  -1.9492
    -1.9478  -1.9375  -1.9358  -1.9244  -1.9212  -1.9192  -1.9164  -1.9146
    -1.9111  -1.9094  -1.9003  -1.8990  -1.8818  -1.8804  -1.8791  -1.8725
    -1.8698  -1.8679  -1.8468  -1.8458  -1.8346  -1.8332  -1.8284  -1.8216
    -1.7875  -1.7572  -1.7528  -1.7201  -1.7038  -1.7029  -1.6923  -1.6905
    -1.6700  -1.6666  -1.6545  -1.6531  -1.6529  -1.6510  -1.6471  -1.6411
    -1.6164  -1.6149  -1.6117  -1.5707  -1.5668  -1.5301  -1.5293  -1.4830
    -1.4814  -1.4686  -1.4472  -1.4407  -1.4398  -1.4232  -1.4211  -1.4049
    -1.4039  -1.4003  -1.3998  -1.3990  -1.3979  -1.3931  -1.3904  -1.3740
    -1.3731  -1.3581  -1.3467  -1.3286  -1.3270  -1.3018  -1.3002  -1.2989
    -1.2984  -1.2941  -1.2866  -1.2701  -1.2672  -1.2557  -1.2478  -1.2367
    -1.2321  -1.2178  -1.2107  -1.1877  -1.1867  -1.1798  -1.1754  -1.1435
    -1.1422  -1.1343  -1.1317  -1.1262  -1.1192  -1.1039  -1.1035  -1.0928
    -1.0848  -1.0833  -1.0730  -1.0720  -1.0716  -1.0627  -1.0576  -1.0461
    -1.0442  -1.0375  -1.0367  -1.0265  -1.0209  -1.0151  -1.0118  -0.9748
    -0.9730  -0.9674  -0.9655  -0.9644  -0.9559  -0.9265  -0.9102  -0.9092
    -0.9078  -0.9060  -0.9030  -0.8982  -0.8963  -0.8829  -0.8735  -0.8484
    -0.8397  -0.8392  -0.8323  -0.8164  -0.8151  -0.8065  -0.7773  -0.7695
    -0.7419  -0.7407  -0.7140  -0.7134  -0.7100  -0.7093  -0.7079  -0.7031
    -0.6993  -0.6963  -0.6945  -0.6944  -0.6632  -0.6622  -0.6467  -0.6423
    -0.6393  -0.6391  -0.6375  -0.6186  -0.6078  -0.3439  -0.3319  -0.2817
    -0.2540  -0.2342  -0.0770  -0.0119  -0.0101   0.0302   0.3062   0.3162
     0.6320   0.6544   0.7363   0.7382   0.7756   0.7823   0.9168   0.9386
     1.0460   1.0486   1.1378   1.7322   1.7515   1.7525   1.7889   1.7960
     1.8250   1.8511   1.9170   1.9393   2.1266   2.1334   2.3605   2.4365
     2.4588   2.4610   2.8274   2.8508   2.9130   2.9167   2.9207   2.9263
     3.0723   3.0739   3.0847   3.2064   3.2275   3.4449   3.4577   3.5822
     3.6066   3.6229   3.8739   3.8886   3.9706   3.9974   4.0136   4.0192
     4.0499   4.1975   4.2022   4.4362   4.4377   4.4936   4.5220   4.5807
     4.6475   4.6488   4.6623   4.7173   4.8757   5.3764   5.4113   5.4389
     5.5521   5.5845   5.6220   5.7271   5.7546   5.7570   5.7744   5.8686
     5.8742   5.9270   5.9289   5.9656   5.9745   6.0542   6.0781   6.1852
     6.2128   6.2340   6.2462   6.2508   6.2545   6.2646   6.2730   6.2844

          k =-0.2500-0.2500 0.0833 (167653 PWs)   bands (ev):

   -20.3248  -8.1015  -6.6924  -6.1642  -6.1640  -5.7349  -5.3431  -5.2407
    -5.2320  -5.0757  -5.0348  -5.0191  -4.9192  -4.8711  -4.8382  -4.7996
    -4.7386  -4.6575  -4.6517  -4.6148  -4.6072  -4.4546  -4.4370  -4.4354
    -4.4332  -4.4289  -4.3734  -4.3708  -4.3623  -4.3580  -4.3240  -4.3134
    -4.3026  -4.2695  -4.2655  -4.2361  -4.2349  -4.1842  -4.1822  -4.1732
    -4.1707  -4.1652  -4.1521  -4.1501  -4.1115  -4.0930  -4.0924  -4.0863
    -4.0847  -4.0534  -4.0037  -3.9893  -3.9875  -3.9855  -3.9824  -3.9739
    -3.9714  -3.9704  -3.9681  -3.9078  -3.9055  -3.8570  -3.8509  -3.8436
    -3.8176  -3.8174  -3.7963  -3.7941  -3.7916  -3.7905  -3.7876  -3.7384
    -3.7363  -3.7257  -3.7243  -3.6211  -3.6185  -3.6146  -3.6108  -3.5750
    -3.5702  -3.5521  -3.5235  -3.5205  -3.4948  -3.4911  -3.4729  -3.4723
    -3.4599  -3.4586  -3.4039  -3.4024  -3.3887  -3.3687  -3.3606  -3.3569
    -3.3565  -3.3562  -3.3292  -3.3287  -3.2929  -3.2889  -3.2713  -3.2704
    -3.2383  -3.2366  -3.2190  -3.1923  -3.1902  -3.1533  -3.1529  -3.1175
    -3.1088  -3.1086  -3.0960  -3.0953  -3.0897  -3.0880  -3.0536  -3.0410
    -3.0015  -3.0004  -2.9917  -2.9831  -2.9818  -2.9778  -2.9570  -2.9565
    -2.9363  -2.9355  -2.9332  -2.9090  -2.9080  -2.9004  -2.8986  -2.8960
    -2.8616  -2.8578  -2.8225  -2.8220  -2.8206  -2.8184  -2.8178  -2.7377
    -2.7285  -2.7249  -2.7244  -2.7229  -2.7228  -2.7196  -2.7169  -2.7164
    -2.7159  -2.7068  -2.6988  -2.6866  -2.6823  -2.6790  -2.6749  -2.6664
    -2.6639  -2.6219  -2.6208  -2.6200  -2.6188  -2.6170  -2.5986  -2.5973
    -2.5921  -2.5896  -2.5860  -2.5479  -2.5280  -2.5259  -2.5216  -2.5206
    -2.5143  -2.4916  -2.4597  -2.4290  -2.4266  -2.4262  -2.4244  -2.4141
    -2.4070  -2.4050  -2.3974  -2.3908  -2.3614  -2.3585  -2.3522  -2.3515
    -2.3488  -2.3355  -2.3107  -2.3097  -2.3007  -2.3000  -2.2991  -2.2882
    -2.2553  -2.2358  -2.2285  -2.1814  -2.1805  -2.1644  -2.1603  -2.1564
    -2.1452  -2.1088  -2.1035  -2.0835  -2.0680  -2.0536  -2.0527  -2.0505
    -2.0305  -2.0275  -2.0205  -2.0016  -1.9651  -1.9627  -1.9499  -1.9492
    -1.9478  -1.9375  -1.9358  -1.9244  -1.9212  -1.9192  -1.9164  -1.9146
    -1.9111  -1.9094  -1.9003  -1.8990  -1.8818  -1.8804  -1.8791  -1.8725
    -1.8698  -1.8679  -1.8468  -1.8458  -1.8346  -1.8332  -1.8284  -1.8216
    -1.7875  -1.7572  -1.7528  -1.7201  -1.7038  -1.7029  -1.6923  -1.6905
    -1.6700  -1.6667  -1.6545  -1.6531  -1.6529  -1.6510  -1.6471  -1.6411
    -1.6164  -1.6149  -1.6117  -1.5707  -1.5668  -1.5301  -1.5293  -1.4830
    -1.4814  -1.4686  -1.4472  -1.4406  -1.4398  -1.4232  -1.4211  -1.4049
    -1.4039  -1.4003  -1.3998  -1.3990  -1.3979  -1.3932  -1.3904  -1.3740
    -1.3731  -1.3581  -1.3467  -1.3286  -1.3270  -1.3018  -1.3002  -1.2989
    -1.2984  -1.2942  -1.2866  -1.2701  -1.2672  -1.2557  -1.2478  -1.2367
    -1.2321  -1.2178  -1.2107  -1.1877  -1.1867  -1.1798  -1.1754  -1.1435
    -1.1422  -1.1343  -1.1317  -1.1262  -1.1192  -1.1039  -1.1035  -1.0928
    -1.0848  -1.0833  -1.0730  -1.0720  -1.0716  -1.0627  -1.0576  -1.0461
    -1.0442  -1.0375  -1.0367  -1.0265  -1.0209  -1.0151  -1.0118  -0.9748
    -0.9730  -0.9674  -0.9655  -0.9644  -0.9559  -0.9265  -0.9102  -0.9092
    -0.9078  -0.9060  -0.9030  -0.8982  -0.8963  -0.8829  -0.8735  -0.8484
    -0.8397  -0.8392  -0.8323  -0.8164  -0.8151  -0.8065  -0.7773  -0.7695
    -0.7419  -0.7407  -0.7140  -0.7134  -0.7100  -0.7093  -0.7079  -0.7031
    -0.6993  -0.6963  -0.6945  -0.6944  -0.6632  -0.6622  -0.6466  -0.6423
    -0.6393  -0.6391  -0.6376  -0.6186  -0.6078  -0.3439  -0.3319  -0.2817
    -0.2540  -0.2342  -0.0770  -0.0119  -0.0101   0.0302   0.3062   0.3162
     0.6320   0.6544   0.7363   0.7382   0.7756   0.7823   0.9168   0.9386
     1.0460   1.0486   1.1378   1.7322   1.7515   1.7525   1.7889   1.7960
     1.8250   1.8511   1.9169   1.9393   2.1266   2.1334   2.3605   2.4365
     2.4588   2.4610   2.8274   2.8508   2.9130   2.9167   2.9207   2.9263
     3.0723   3.0739   3.0847   3.2064   3.2275   3.4449   3.4577   3.5822
     3.6066   3.6229   3.8739   3.8886   3.9704   3.9974   4.0136   4.0192
     4.0498   4.1975   4.2022   4.4362   4.4377   4.4939   4.5220   4.5812
     4.6475   4.6488   4.6623   4.7173   4.8772   5.3792   5.4273   5.4500
     5.5540   5.5852   5.6107   5.6531   5.7554   5.7609   5.7716   5.8691
     5.8743   5.9271   5.9288   5.9683   6.0038   6.0321   6.0831   6.1462
     6.1980   6.2242   6.2401   6.2492   6.2536   6.2637   6.2732   6.2844

          k =-0.2500 0.2500-0.0833 (167653 PWs)   bands (ev):

   -20.3248  -8.1015  -6.6924  -6.1641  -6.1641  -5.7349  -5.3431  -5.2406
    -5.2322  -5.0757  -5.0348  -5.0191  -4.9194  -4.8709  -4.8382  -4.7997
    -4.7387  -4.6574  -4.6517  -4.6149  -4.6071  -4.4546  -4.4371  -4.4354
    -4.4332  -4.4289  -4.3734  -4.3708  -4.3625  -4.3579  -4.3240  -4.3135
    -4.3025  -4.2695  -4.2655  -4.2361  -4.2348  -4.1843  -4.1820  -4.1733
    -4.1706  -4.1652  -4.1521  -4.1501  -4.1115  -4.0931  -4.0923  -4.0864
    -4.0847  -4.0535  -4.0038  -3.9894  -3.9874  -3.9855  -3.9822  -3.9738
    -3.9714  -3.9704  -3.9681  -3.9079  -3.9053  -3.8571  -3.8509  -3.8437
    -3.8176  -3.8173  -3.7962  -3.7943  -3.7912  -3.7907  -3.7875  -3.7384
    -3.7363  -3.7259  -3.7242  -3.6213  -3.6186  -3.6148  -3.6109  -3.5750
    -3.5702  -3.5521  -3.5235  -3.5205  -3.4950  -3.4910  -3.4730  -3.4723
    -3.4600  -3.4586  -3.4040  -3.4023  -3.3883  -3.3687  -3.3604  -3.3569
    -3.3567  -3.3561  -3.3293  -3.3288  -3.2927  -3.2889  -3.2713  -3.2706
    -3.2381  -3.2367  -3.2190  -3.1920  -3.1902  -3.1534  -3.1528  -3.1177
    -3.1087  -3.1086  -3.0962  -3.0955  -3.0897  -3.0879  -3.0535  -3.0411
    -3.0013  -3.0005  -2.9917  -2.9828  -2.9822  -2.9777  -2.9570  -2.9565
    -2.9364  -2.9355  -2.9330  -2.9087  -2.9079  -2.9005  -2.8984  -2.8960
    -2.8615  -2.8578  -2.8226  -2.8221  -2.8210  -2.8184  -2.8178  -2.7378
    -2.7287  -2.7250  -2.7243  -2.7228  -2.7227  -2.7192  -2.7169  -2.7165
    -2.7159  -2.7067  -2.6988  -2.6866  -2.6817  -2.6790  -2.6750  -2.6660
    -2.6633  -2.6219  -2.6211  -2.6204  -2.6197  -2.6174  -2.5986  -2.5973
    -2.5916  -2.5896  -2.5860  -2.5468  -2.5281  -2.5254  -2.5216  -2.5203
    -2.5143  -2.4930  -2.4587  -2.4289  -2.4266  -2.4261  -2.4245  -2.4141
    -2.4088  -2.4050  -2.3973  -2.3921  -2.3616  -2.3580  -2.3525  -2.3516
    -2.3488  -2.3366  -2.3112  -2.3097  -2.3009  -2.3000  -2.2990  -2.2904
    -2.2550  -2.2358  -2.2258  -2.1815  -2.1803  -2.1641  -2.1604  -2.1567
    -2.1450  -2.1090  -2.1015  -2.0836  -2.0663  -2.0537  -2.0527  -2.0510
    -2.0304  -2.0276  -2.0205  -2.0017  -1.9653  -1.9626  -1.9493  -1.9488
    -1.9472  -1.9376  -1.9363  -1.9241  -1.9215  -1.9191  -1.9166  -1.9149
    -1.9111  -1.9085  -1.9003  -1.8989  -1.8818  -1.8802  -1.8782  -1.8725
    -1.8699  -1.8682  -1.8468  -1.8456  -1.8345  -1.8333  -1.8287  -1.8211
    -1.7875  -1.7574  -1.7525  -1.7201  -1.7040  -1.7026  -1.6928  -1.6908
    -1.6702  -1.6654  -1.6546  -1.6531  -1.6529  -1.6510  -1.6473  -1.6441
    -1.6165  -1.6149  -1.6116  -1.5709  -1.5665  -1.5302  -1.5294  -1.4831
    -1.4811  -1.4685  -1.4473  -1.4405  -1.4398  -1.4233  -1.4214  -1.4051
    -1.4034  -1.4004  -1.3998  -1.3989  -1.3976  -1.3936  -1.3900  -1.3743
    -1.3733  -1.3579  -1.3468  -1.3286  -1.3276  -1.3017  -1.3004  -1.2987
    -1.2985  -1.2939  -1.2859  -1.2707  -1.2669  -1.2562  -1.2478  -1.2359
    -1.2321  -1.2180  -1.2106  -1.1878  -1.1867  -1.1799  -1.1752  -1.1437
    -1.1417  -1.1344  -1.1316  -1.1266  -1.1189  -1.1038  -1.1033  -1.0929
    -1.0849  -1.0833  -1.0731  -1.0722  -1.0715  -1.0625  -1.0577  -1.0460
    -1.0439  -1.0376  -1.0367  -1.0263  -1.0214  -1.0152  -1.0120  -0.9751
    -0.9727  -0.9670  -0.9655  -0.9646  -0.9559  -0.9265  -0.9104  -0.9090
    -0.9078  -0.9060  -0.9039  -0.8982  -0.8962  -0.8830  -0.8733  -0.8486
    -0.8397  -0.8393  -0.8319  -0.8165  -0.8149  -0.8065  -0.7775  -0.7696
    -0.7420  -0.7406  -0.7140  -0.7134  -0.7100  -0.7094  -0.7079  -0.7031
    -0.6993  -0.6963  -0.6946  -0.6942  -0.6633  -0.6620  -0.6471  -0.6423
    -0.6393  -0.6391  -0.6379  -0.6187  -0.6069  -0.3439  -0.3319  -0.2823
    -0.2534  -0.2342  -0.0765  -0.0121  -0.0097   0.0302   0.3057   0.3167
     0.6314   0.6548   0.7361   0.7385   0.7753   0.7829   0.9159   0.9393
     1.0460   1.0485   1.1380   1.7326   1.7515   1.7525   1.7881   1.7960
     1.8237   1.8520   1.9164   1.9404   2.1262   2.1338   2.3602   2.4359
     2.4588   2.4614   2.8263   2.8505   2.9128   2.9170   2.9205   2.9268
     3.0724   3.0738   3.0838   3.2054   3.2304   3.4447   3.4604   3.5821
     3.6061   3.6231   3.8733   3.8903   3.9769   3.9940   4.0134   4.0183
     4.0466   4.1971   4.2026   4.4367   4.4376   4.4950   4.5212   4.5722
     4.6471   4.6494   4.6611   4.7177   4.8866   5.3717   5.4289   5.4601
     5.5476   5.5881   5.6097   5.6439   5.7549   5.7619   5.7724   5.8684
     5.8746   5.9268   5.9295   5.9696   6.0093   6.0288   6.0885   6.1416
     6.1973   6.2295   6.2424   6.2482   6.2525   6.2631   6.2743   6.2832

          k = 0.2500-0.2500-0.0833 (167653 PWs)   bands (ev):

   -20.3248  -8.1015  -6.6924  -6.1641  -6.1641  -5.7349  -5.3431  -5.2406
    -5.2322  -5.0757  -5.0348  -5.0191  -4.9194  -4.8709  -4.8382  -4.7997
    -4.7387  -4.6574  -4.6517  -4.6149  -4.6071  -4.4546  -4.4371  -4.4354
    -4.4332  -4.4289  -4.3734  -4.3708  -4.3625  -4.3579  -4.3240  -4.3135
    -4.3025  -4.2695  -4.2655  -4.2361  -4.2348  -4.1843  -4.1820  -4.1733
    -4.1706  -4.1652  -4.1521  -4.1501  -4.1115  -4.0931  -4.0923  -4.0864
    -4.0847  -4.0535  -4.0038  -3.9894  -3.9874  -3.9855  -3.9822  -3.9738
    -3.9714  -3.9704  -3.9681  -3.9079  -3.9053  -3.8571  -3.8509  -3.8437
    -3.8176  -3.8173  -3.7962  -3.7943  -3.7912  -3.7907  -3.7875  -3.7384
    -3.7363  -3.7259  -3.7242  -3.6213  -3.6186  -3.6148  -3.6109  -3.5750
    -3.5702  -3.5521  -3.5235  -3.5205  -3.4950  -3.4910  -3.4730  -3.4723
    -3.4600  -3.4586  -3.4040  -3.4023  -3.3883  -3.3687  -3.3604  -3.3569
    -3.3567  -3.3561  -3.3293  -3.3288  -3.2927  -3.2889  -3.2713  -3.2706
    -3.2381  -3.2367  -3.2190  -3.1920  -3.1902  -3.1534  -3.1528  -3.1177
    -3.1087  -3.1086  -3.0962  -3.0955  -3.0897  -3.0879  -3.0535  -3.0411
    -3.0013  -3.0005  -2.9917  -2.9828  -2.9822  -2.9777  -2.9570  -2.9565
    -2.9364  -2.9355  -2.9330  -2.9087  -2.9079  -2.9005  -2.8984  -2.8960
    -2.8615  -2.8578  -2.8226  -2.8221  -2.8210  -2.8184  -2.8178  -2.7378
    -2.7287  -2.7250  -2.7243  -2.7228  -2.7227  -2.7192  -2.7169  -2.7165
    -2.7159  -2.7067  -2.6988  -2.6866  -2.6817  -2.6790  -2.6750  -2.6660
    -2.6633  -2.6219  -2.6211  -2.6204  -2.6197  -2.6174  -2.5986  -2.5973
    -2.5916  -2.5896  -2.5860  -2.5468  -2.5281  -2.5254  -2.5216  -2.5203
    -2.5143  -2.4930  -2.4587  -2.4289  -2.4266  -2.4261  -2.4245  -2.4141
    -2.4088  -2.4050  -2.3973  -2.3921  -2.3616  -2.3580  -2.3525  -2.3516
    -2.3488  -2.3366  -2.3112  -2.3097  -2.3009  -2.3000  -2.2990  -2.2904
    -2.2550  -2.2358  -2.2258  -2.1815  -2.1803  -2.1641  -2.1604  -2.1567
    -2.1450  -2.1090  -2.1015  -2.0836  -2.0663  -2.0537  -2.0527  -2.0510
    -2.0304  -2.0276  -2.0205  -2.0017  -1.9653  -1.9626  -1.9493  -1.9488
    -1.9472  -1.9376  -1.9363  -1.9241  -1.9215  -1.9191  -1.9166  -1.9149
    -1.9111  -1.9085  -1.9003  -1.8989  -1.8818  -1.8802  -1.8782  -1.8725
    -1.8699  -1.8682  -1.8468  -1.8456  -1.8345  -1.8333  -1.8287  -1.8211
    -1.7875  -1.7574  -1.7525  -1.7201  -1.7040  -1.7026  -1.6928  -1.6908
    -1.6702  -1.6654  -1.6546  -1.6531  -1.6529  -1.6510  -1.6473  -1.6441
    -1.6165  -1.6149  -1.6116  -1.5709  -1.5665  -1.5302  -1.5294  -1.4831
    -1.4811  -1.4685  -1.4473  -1.4405  -1.4398  -1.4233  -1.4214  -1.4051
    -1.4034  -1.4004  -1.3998  -1.3989  -1.3976  -1.3936  -1.3900  -1.3743
    -1.3733  -1.3579  -1.3468  -1.3286  -1.3276  -1.3017  -1.3004  -1.2987
    -1.2985  -1.2939  -1.2859  -1.2707  -1.2669  -1.2562  -1.2478  -1.2359
    -1.2321  -1.2180  -1.2106  -1.1878  -1.1867  -1.1799  -1.1752  -1.1437
    -1.1417  -1.1344  -1.1316  -1.1266  -1.1189  -1.1038  -1.1033  -1.0929
    -1.0849  -1.0833  -1.0731  -1.0722  -1.0715  -1.0625  -1.0577  -1.0460
    -1.0439  -1.0376  -1.0367  -1.0263  -1.0214  -1.0152  -1.0120  -0.9751
    -0.9727  -0.9670  -0.9655  -0.9646  -0.9559  -0.9265  -0.9104  -0.9090
    -0.9078  -0.9060  -0.9039  -0.8982  -0.8962  -0.8830  -0.8733  -0.8486
    -0.8397  -0.8393  -0.8319  -0.8165  -0.8149  -0.8065  -0.7775  -0.7696
    -0.7420  -0.7406  -0.7140  -0.7134  -0.7100  -0.7094  -0.7079  -0.7031
    -0.6993  -0.6963  -0.6946  -0.6942  -0.6633  -0.6620  -0.6471  -0.6423
    -0.6393  -0.6391  -0.6379  -0.6187  -0.6069  -0.3439  -0.3319  -0.2823
    -0.2534  -0.2342  -0.0765  -0.0121  -0.0097   0.0302   0.3057   0.3167
     0.6314   0.6548   0.7361   0.7385   0.7753   0.7829   0.9159   0.9393
     1.0460   1.0485   1.1380   1.7326   1.7515   1.7525   1.7881   1.7960
     1.8237   1.8520   1.9164   1.9404   2.1262   2.1338   2.3602   2.4359
     2.4588   2.4614   2.8263   2.8505   2.9128   2.9170   2.9205   2.9268
     3.0724   3.0738   3.0838   3.2054   3.2304   3.4447   3.4604   3.5821
     3.6061   3.6231   3.8733   3.8903   3.9769   3.9940   4.0134   4.0183
     4.0466   4.1971   4.2026   4.4367   4.4376   4.4950   4.5212   4.5722
     4.6471   4.6494   4.6611   4.7177   4.8866   5.3717   5.4288   5.4603
     5.5474   5.5881   5.6092   5.6442   5.7549   5.7619   5.7724   5.8684
     5.8746   5.9268   5.9295   5.9696   6.0092   6.0296   6.0891   6.1408
     6.1974   6.2292   6.2423   6.2482   6.2525   6.2631   6.2743   6.2832

          k =-0.2500 0.2500 0.2500 (167588 PWs)   bands (ev):

   -20.3248  -8.1015  -6.6924  -6.1641  -6.1641  -5.7349  -5.3431  -5.2406
    -5.2322  -5.0757  -5.0348  -5.0191  -4.9194  -4.8709  -4.8382  -4.7997
    -4.7387  -4.6574  -4.6517  -4.6149  -4.6071  -4.4546  -4.4371  -4.4354
    -4.4332  -4.4289  -4.3734  -4.3708  -4.3625  -4.3579  -4.3240  -4.3135
    -4.3025  -4.2695  -4.2655  -4.2361  -4.2348  -4.1843  -4.1820  -4.1733
    -4.1707  -4.1653  -4.1521  -4.1501  -4.1115  -4.0931  -4.0923  -4.0864
    -4.0847  -4.0535  -4.0038  -3.9894  -3.9874  -3.9855  -3.9822  -3.9738
    -3.9714  -3.9704  -3.9681  -3.9079  -3.9053  -3.8571  -3.8509  -3.8437
    -3.8176  -3.8173  -3.7961  -3.7943  -3.7912  -3.7907  -3.7876  -3.7384
    -3.7363  -3.7259  -3.7242  -3.6213  -3.6186  -3.6148  -3.6109  -3.5750
    -3.5702  -3.5521  -3.5235  -3.5205  -3.4950  -3.4910  -3.4730  -3.4723
    -3.4600  -3.4586  -3.4040  -3.4023  -3.3883  -3.3687  -3.3604  -3.3569
    -3.3567  -3.3561  -3.3293  -3.3288  -3.2927  -3.2888  -3.2712  -3.2706
    -3.2381  -3.2367  -3.2190  -3.1920  -3.1902  -3.1534  -3.1528  -3.1177
    -3.1087  -3.1086  -3.0962  -3.0955  -3.0897  -3.0879  -3.0535  -3.0411
    -3.0013  -3.0005  -2.9917  -2.9828  -2.9822  -2.9777  -2.9570  -2.9565
    -2.9364  -2.9355  -2.9330  -2.9087  -2.9079  -2.9005  -2.8984  -2.8960
    -2.8615  -2.8578  -2.8226  -2.8221  -2.8210  -2.8183  -2.8178  -2.7378
    -2.7287  -2.7250  -2.7243  -2.7228  -2.7227  -2.7192  -2.7169  -2.7165
    -2.7159  -2.7067  -2.6988  -2.6866  -2.6817  -2.6790  -2.6750  -2.6660
    -2.6633  -2.6219  -2.6211  -2.6204  -2.6196  -2.6174  -2.5986  -2.5973
    -2.5916  -2.5896  -2.5860  -2.5468  -2.5281  -2.5254  -2.5216  -2.5203
    -2.5143  -2.4930  -2.4587  -2.4289  -2.4266  -2.4261  -2.4245  -2.4141
    -2.4088  -2.4050  -2.3973  -2.3921  -2.3616  -2.3580  -2.3525  -2.3516
    -2.3488  -2.3366  -2.3112  -2.3097  -2.3009  -2.3000  -2.2990  -2.2904
    -2.2550  -2.2358  -2.2258  -2.1815  -2.1803  -2.1641  -2.1604  -2.1567
    -2.1450  -2.1090  -2.1015  -2.0836  -2.0663  -2.0537  -2.0527  -2.0510
    -2.0304  -2.0276  -2.0205  -2.0017  -1.9653  -1.9626  -1.9493  -1.9488
    -1.9472  -1.9376  -1.9363  -1.9241  -1.9215  -1.9191  -1.9166  -1.9149
    -1.9111  -1.9085  -1.9003  -1.8989  -1.8818  -1.8802  -1.8782  -1.8725
    -1.8699  -1.8682  -1.8468  -1.8456  -1.8345  -1.8333  -1.8287  -1.8211
    -1.7875  -1.7574  -1.7525  -1.7201  -1.7040  -1.7026  -1.6928  -1.6908
    -1.6702  -1.6654  -1.6546  -1.6531  -1.6529  -1.6510  -1.6473  -1.6441
    -1.6165  -1.6149  -1.6116  -1.5709  -1.5665  -1.5302  -1.5294  -1.4831
    -1.4811  -1.4685  -1.4473  -1.4405  -1.4398  -1.4233  -1.4214  -1.4051
    -1.4034  -1.4004  -1.3998  -1.3989  -1.3976  -1.3936  -1.3900  -1.3743
    -1.3733  -1.3579  -1.3468  -1.3286  -1.3276  -1.3017  -1.3004  -1.2987
    -1.2985  -1.2939  -1.2859  -1.2706  -1.2669  -1.2562  -1.2477  -1.2359
    -1.2321  -1.2180  -1.2106  -1.1879  -1.1867  -1.1799  -1.1752  -1.1437
    -1.1417  -1.1344  -1.1316  -1.1266  -1.1189  -1.1038  -1.1033  -1.0929
    -1.0849  -1.0833  -1.0731  -1.0722  -1.0715  -1.0625  -1.0577  -1.0460
    -1.0439  -1.0376  -1.0367  -1.0262  -1.0214  -1.0152  -1.0120  -0.9751
    -0.9727  -0.9670  -0.9655  -0.9646  -0.9559  -0.9265  -0.9104  -0.9090
    -0.9078  -0.9060  -0.9039  -0.8982  -0.8962  -0.8830  -0.8733  -0.8486
    -0.8397  -0.8393  -0.8319  -0.8165  -0.8149  -0.8065  -0.7775  -0.7696
    -0.7420  -0.7405  -0.7139  -0.7134  -0.7100  -0.7094  -0.7079  -0.7031
    -0.6993  -0.6963  -0.6946  -0.6942  -0.6633  -0.6620  -0.6471  -0.6423
    -0.6393  -0.6391  -0.6379  -0.6186  -0.6069  -0.3439  -0.3319  -0.2823
    -0.2534  -0.2342  -0.0765  -0.0121  -0.0097   0.0302   0.3057   0.3167
     0.6314   0.6548   0.7361   0.7385   0.7753   0.7829   0.9159   0.9393
     1.0460   1.0485   1.1380   1.7326   1.7515   1.7525   1.7881   1.7960
     1.8237   1.8520   1.9164   1.9404   2.1262   2.1338   2.3602   2.4359
     2.4588   2.4614   2.8263   2.8505   2.9128   2.9170   2.9205   2.9268
     3.0724   3.0738   3.0838   3.2054   3.2304   3.4447   3.4604   3.5821
     3.6061   3.6231   3.8733   3.8903   3.9770   3.9940   4.0134   4.0183
     4.0467   4.1971   4.2026   4.4366   4.4376   4.4947   4.5212   4.5717
     4.6471   4.6494   4.6611   4.7177   4.8850   5.3696   5.4109   5.4500
     5.5444   5.5873   5.6128   5.7320   5.7541   5.7567   5.7753   5.8678
     5.8748   5.9267   5.9296   5.9679   5.9763   6.0474   6.0773   6.1940
     6.2133   6.2309   6.2472   6.2535   6.2546   6.2643   6.2743   6.2832

     the Fermi energy is     0.9988 ev

!    total energy              =   -7425.29315589 Ry
     Harris-Foulkes estimate   =   -7425.29315592 Ry
     estimated scf accuracy    <          9.3E-09 Ry

     The total energy is the sum of the following terms:

     one-electron contribution =  -48826.87120713 Ry
     hartree contribution      =   24967.80889812 Ry
     xc contribution           =   -3604.22933794 Ry
     ewald contribution        =   20038.00119038 Ry
     smearing contrib. (-TS)   =      -0.00269932 Ry

     convergence has been achieved in  27 iterations

     Writing output data file 9873264.save

     init_run     :    107.40s CPU    115.64s WALL (       1 calls)
     electrons    :   6397.35s CPU   6800.43s WALL (       1 calls)

     Called by init_run:
     wfcinit      :     80.07s CPU     86.32s WALL (       1 calls)
     potinit      :      6.36s CPU      6.86s WALL (       1 calls)

     Called by electrons:
     c_bands      :   5301.56s CPU   5618.84s WALL (      28 calls)
     sum_band     :    749.00s CPU    820.32s WALL (      28 calls)
     v_of_rho     :     79.06s CPU     88.34s WALL (      28 calls)
     newd         :    277.62s CPU    281.81s WALL (      28 calls)
     mix_rho      :      2.64s CPU      2.97s WALL (      28 calls)
     vdW_energy   :      9.69s CPU     10.20s WALL (      28 calls)
     vdW_ffts     :     34.91s CPU     39.68s WALL (      56 calls)
     vdW_v        :     10.12s CPU     10.92s WALL (      28 calls)

     Called by c_bands:
     init_us_2    :      8.43s CPU      8.74s WALL (     342 calls)
     cegterg      :   5235.04s CPU   5550.62s WALL (     168 calls)

     Called by *egterg:
     h_psi        :   2090.03s CPU   2377.59s WALL (     839 calls)
     s_psi        :    349.30s CPU    350.99s WALL (     839 calls)
     g_psi        :      4.52s CPU      4.49s WALL (     665 calls)
     cdiaghg      :   1573.97s CPU   1578.83s WALL (     827 calls)

     Called by h_psi:
     add_vuspsi   :    349.46s CPU    351.35s WALL (     839 calls)

     General routines
     calbec       :    561.32s CPU    563.33s WALL (    1007 calls)
     fft          :    115.83s CPU    124.82s WALL (    1848 calls)
     ffts         :      1.02s CPU      1.23s WALL (      56 calls)
     fftw         :   1504.62s CPU   1828.25s WALL (  449232 calls)
     interpolate  :      2.62s CPU      3.21s WALL (      56 calls)
     davcio       :      0.00s CPU      0.11s WALL (       6 calls)

     Parallel routines
     fft_scatter  :   1056.34s CPU   1296.34s WALL (  451136 calls)

     PWSCF        :     1h48m CPU        1h55m WALL


   This run was terminated on:   6:10:23  25Jun2015            

=------------------------------------------------------------------------------=
   JOB DONE.
=------------------------------------------------------------------------------=
