Setting SGE environment for SCC

     Program PWSCF v.5.1.2 starts on 25Jun2015 at  5:39:12 

     This program is part of the open-source Quantum ESPRESSO suite
     for quantum simulation of materials; please cite
         "P. Giannozzi et al., J. Phys.:Condens. Matter 21 395502 (2009);
          URL http://www.quantum-espresso.org", 
     in publications or presentations arising from this work. More details at
     http://www.quantum-espresso.org/quote

     Parallel version (MPI), running on    32 processors
     R & G space division:  proc/nbgrp/npool/nimage =      32
     Reading input from top.O1.Au62.d.3.0.phi.45.psi.0.in
Warning: card &IONS ignored
Warning: card / ignored
Warning: card &CELL ignored
Warning: card / ignored

     Current dimensions of program PWSCF are:
     Max number of different atomic species (ntypx) = 10
     Max number of k-points (npk) =  40000
     Max angular momentum in pseudopotentials (lmaxx) =  3

     IMPORTANT: XC functional enforced from input :
     Exchange-correlation      = VDW-DF ( 1  4  4  0 1 0)
     Any further DFT definition will be discarded
     Please, verify this is what you really want


     Subspace diagonalization in iterative solution of the eigenvalue problem:
     a serial algorithm will be used


     Parallelization info
     --------------------
     sticks:   dense  smooth     PW     G-vecs:    dense   smooth      PW
     Min         578     289     74               118518    41891    5486
     Max         579     290     75               118533    41932    5497
     Sum       18505    9265   2385              3792731  1341081  175711


     Title: 
     top.O1.Au62.d.3.0.phi.45.psi.0                                             


     bravais-lattice index     =            8
     lattice parameter (alat)  =      24.1233  a.u.
     unit-cell volume          =   28076.2361 (a.u.)^3
     number of atoms/cell      =           75
     number of atomic types    =            3
     number of electrons       =       800.00
     number of Kohn-Sham states=          480
     kinetic-energy cutoff     =      50.0000  Ry
     charge density cutoff     =     400.0000  Ry
     convergence threshold     =      1.0E-08
     mixing beta               =       0.7000
     number of iterations used =            8  plain     mixing
     Exchange-correlation      = VDW-DF ( 1  4  4  0 1 0)

     celldm(1)=  24.123277  celldm(2)=   1.000000  celldm(3)=   2.000000
     celldm(4)=   0.000000  celldm(5)=   0.000000  celldm(6)=   0.000000

     crystal axes: (cart. coord. in units of alat)
               a(1) = (   1.000000   0.000000   0.000000 )  
               a(2) = (   0.000000   1.000000   0.000000 )  
               a(3) = (   0.000000   0.000000   2.000000 )  

     reciprocal axes: (cart. coord. in units 2 pi/alat)
               b(1) = (  1.000000  0.000000  0.000000 )  
               b(2) = (  0.000000  1.000000  0.000000 )  
               b(3) = (  0.000000  0.000000  0.500000 )  


     PseudoPot. # 1 for Au read from file:
     /home/scc/andrejb/qe/pseudo/Au.pbe-nd-van.UPF
     MD5 check sum: 458681b50f36d87ef23c61b04bba420a
     Pseudo is Ultrasoft + core correction, Zval = 11.0
     Generated by new atomic code, or converted to UPF format
     Using radial grid of  985 points,  3 beta functions with: 
                l(1) =   1
                l(2) =   2
                l(3) =   2
     Q(r) pseudized with  8 coefficients,  rinner =    1.100   1.100   1.100
                                                       1.100   1.100

     PseudoPot. # 2 for H  read from file:
     /home/scc/andrejb/qe/pseudo/H.pbe-van_ak.UPF
     MD5 check sum: 403db7282739603aa925980fa9b8608d
     Pseudo is Ultrasoft, Zval =  1.0
     Generated by new atomic code, or converted to UPF format
     Using radial grid of  615 points,  1 beta functions with: 
                l(1) =   0
     Q(r) pseudized with  8 coefficients,  rinner =    0.800

     PseudoPot. # 3 for O  read from file:
     /home/scc/andrejb/qe/pseudo/O.pbe-van_ak.UPF
     MD5 check sum: 4b8c549914a63cae506c6ff22b5af4fe
     Pseudo is Ultrasoft, Zval =  6.0
     Generated by new atomic code, or converted to UPF format
     Using radial grid of  737 points,  4 beta functions with: 
                l(1) =   0
                l(2) =   0
                l(3) =   1
                l(4) =   1
     Q(r) pseudized with  8 coefficients,  rinner =    0.800   0.800   0.800


     vdW kernel table read from file vdW_kernel_table
     MD5 check sum: 48e77a2e26edf626eeb0eaa751ad5cac

     atomic species   valence    mass     pseudopotential
        Au            11.00   196.96657     Au( 1.00)
        H              1.00     1.01000     H ( 1.00)
        O              6.00    16.00000     O ( 1.00)

     No symmetry found



   Cartesian axes

     site n.     atom                  positions (alat units)
         1           O   tau(   1) = (   0.4998324   0.3332216   0.7343272  )
         2           H   tau(   2) = (   0.4942419   0.2722342   0.7798211  )
         3           H   tau(   3) = (   0.5052408   0.3923724   0.7821848  )
         4           Au  tau(   4) = (   0.0000000   0.0000000   0.0000000  )
         5           Au  tau(   5) = (   0.3332217   0.0000000   0.0000000  )
         6           Au  tau(   6) = (   0.6664435   0.0000000   0.0000000  )
         7           Au  tau(   7) = (   0.1666109   0.1666109   0.0000000  )
         8           Au  tau(   8) = (   0.4998326   0.1666109   0.0000000  )
         9           Au  tau(   9) = (   0.8330542   0.1666109   0.0000000  )
        10           Au  tau(  10) = (   0.0000000   0.3332217   0.0000000  )
        11           Au  tau(  11) = (   0.3332217   0.3332217   0.0000000  )
        12           Au  tau(  12) = (   0.6664435   0.3332217   0.0000000  )
        13           Au  tau(  13) = (   0.1666109   0.4998326   0.0000000  )
        14           Au  tau(  14) = (   0.4998326   0.4998326   0.0000000  )
        15           Au  tau(  15) = (   0.8330542   0.4998326   0.0000000  )
        16           Au  tau(  16) = (   0.0000000   0.6664435   0.0000000  )
        17           Au  tau(  17) = (   0.3332217   0.6664435   0.0000000  )
        18           Au  tau(  18) = (   0.6664435   0.6664435   0.0000000  )
        19           Au  tau(  19) = (   0.1666109   0.8330542   0.0000000  )
        20           Au  tau(  20) = (   0.4998326   0.8330542   0.0000000  )
        21           Au  tau(  21) = (   0.8330542   0.8330542   0.0000000  )
        22           Au  tau(  22) = (   0.1666109   0.0000000   0.1666109  )
        23           Au  tau(  23) = (   0.4998326   0.0000000   0.1666109  )
        24           Au  tau(  24) = (   0.8330542   0.0000000   0.1666109  )
        25           Au  tau(  25) = (   0.0000000   0.1666109   0.1666109  )
        26           Au  tau(  26) = (   0.3332217   0.1666109   0.1666109  )
        27           Au  tau(  27) = (   0.6664435   0.1666109   0.1666109  )
        28           Au  tau(  28) = (   0.1666109   0.3332217   0.1666109  )
        29           Au  tau(  29) = (   0.4998326   0.3332217   0.1666109  )
        30           Au  tau(  30) = (   0.8330542   0.3332217   0.1666109  )
        31           Au  tau(  31) = (   0.0000000   0.4998326   0.1666109  )
        32           Au  tau(  32) = (   0.3332217   0.4998326   0.1666109  )
        33           Au  tau(  33) = (   0.6664435   0.4998326   0.1666109  )
        34           Au  tau(  34) = (   0.1666109   0.6664435   0.1666109  )
        35           Au  tau(  35) = (   0.4998326   0.6664435   0.1666109  )
        36           Au  tau(  36) = (   0.8330542   0.6664435   0.1666109  )
        37           Au  tau(  37) = (   0.0000000   0.8330542   0.1666109  )
        38           Au  tau(  38) = (   0.3332217   0.8330542   0.1666109  )
        39           Au  tau(  39) = (   0.6664435   0.8330542   0.1666109  )
        40           Au  tau(  40) = (  -0.0000182  -0.0000182   0.3335478  )
        41           Au  tau(  41) = (   0.3332215  -0.0000181   0.3335472  )
        42           Au  tau(  42) = (   0.6664447  -0.0000183   0.3335481  )
        43           Au  tau(  43) = (  -0.0000181   0.3332215   0.3335472  )
        44           Au  tau(  44) = (   0.3332215   0.3332215   0.3335468  )
        45           Au  tau(  45) = (   0.6664445   0.3332215   0.3335478  )
        46           Au  tau(  46) = (  -0.0000183   0.6664447   0.3335481  )
        47           Au  tau(  47) = (   0.3332215   0.6664445   0.3335478  )
        48           Au  tau(  48) = (   0.6664446   0.6664446   0.3335486  )
        49           Au  tau(  49) = (   0.1666097   0.1666097   0.3335483  )
        50           Au  tau(  50) = (   0.4998320   0.1666098   0.3335477  )
        51           Au  tau(  51) = (   0.8330732   0.1666096   0.3335481  )
        52           Au  tau(  52) = (   0.1666098   0.4998320   0.3335477  )
        53           Au  tau(  53) = (   0.4998321   0.4998321   0.3335470  )
        54           Au  tau(  54) = (   0.8330730   0.4998322   0.3335474  )
        55           Au  tau(  55) = (   0.1666096   0.8330732   0.3335481  )
        56           Au  tau(  56) = (   0.4998322   0.8330730   0.3335474  )
        57           Au  tau(  57) = (   0.8330731   0.8330731   0.3335478  )
        58           Au  tau(  58) = (   0.1666104  -0.0000111   0.4993095  )
        59           Au  tau(  59) = (   0.4998323  -0.0000112   0.4993099  )
        60           Au  tau(  60) = (   0.8330661  -0.0000111   0.4993009  )
        61           Au  tau(  61) = (  -0.0000111   0.1666104   0.4993095  )
        62           Au  tau(  62) = (   0.3332214   0.1666106   0.4993185  )
        63           Au  tau(  63) = (   0.6664437   0.1666106   0.4993187  )
        64           Au  tau(  64) = (   0.1666106   0.3332214   0.4993185  )
        65           Au  tau(  65) = (   0.4998324   0.3332216   0.4993185  )
        66           Au  tau(  66) = (   0.8330659   0.3332215   0.4993103  )
        67           Au  tau(  67) = (  -0.0000112   0.4998323   0.4993099  )
        68           Au  tau(  68) = (   0.3332216   0.4998324   0.4993185  )
        69           Au  tau(  69) = (   0.6664436   0.4998325   0.4993187  )
        70           Au  tau(  70) = (   0.1666106   0.6664437   0.4993187  )
        71           Au  tau(  71) = (   0.4998325   0.6664436   0.4993187  )
        72           Au  tau(  72) = (   0.8330658   0.6664438   0.4993102  )
        73           Au  tau(  73) = (  -0.0000111   0.8330661   0.4993009  )
        74           Au  tau(  74) = (   0.3332215   0.8330659   0.4993103  )
        75           Au  tau(  75) = (   0.6664438   0.8330658   0.4993102  )

     number of k points=     6  Marzari-Vanderbilt smearing, width (Ry)=  0.0200
                       cart. coord. in units 2pi/alat
        k(    1) = (   0.2500000   0.2500000   0.0833333), wk =   0.3333333
        k(    2) = (   0.2500000   0.2500000  -0.2500000), wk =   0.3333333
        k(    3) = (  -0.2500000  -0.2500000   0.0833333), wk =   0.3333333
        k(    4) = (  -0.2500000   0.2500000  -0.0833333), wk =   0.3333333
        k(    5) = (   0.2500000  -0.2500000  -0.0833333), wk =   0.3333333
        k(    6) = (  -0.2500000   0.2500000   0.2500000), wk =   0.3333333

     Dense  grid:  3792731 G-vectors     FFT dimensions: ( 160, 160, 320)

     Smooth grid:  1341081 G-vectors     FFT dimensions: ( 120, 120, 225)

     Largest allocated arrays     est. size (Mb)     dimensions
        Kohn-Sham Wavefunctions        38.58 Mb     (    5267,  480)
        NL pseudopotentials            76.03 Mb     (    5267,  946)
        Each V/rho on FFT grid          3.91 Mb     (  256000)
        Each G-vector array             0.90 Mb     (  118520)
        G-vector shells                 0.08 Mb     (   10286)
     Largest temporary arrays     est. size (Mb)     dimensions
        Auxiliary wavefunctions       154.31 Mb     (    5267, 1920)
        Each subspace H/S matrix       56.25 Mb     (    1920, 1920)
        Each <psi_i|beta_j> matrix      6.93 Mb     (     946,  480)
        Arrays for rho mixing          31.25 Mb     (  256000,    8)

     Initial potential from superposition of free atoms
     Check: negative starting charge=   -1.945067

     starting charge  799.16392, renormalised to  800.00000

     negative rho (up, down):  1.947E+00 0.000E+00


     ************************************************************************
     *
     * You are using vdW-DF for exchange-correlation in this calculation.
     * Please cite the following three references that made this development
     * possible:
     *
     *   M. Dion, H. Rydberg, E. Schroder, D. C. Langreth, and
     *   B. I. Lundqvist, Phys. Rev. Lett. 92, 246401 (2004).
     *
     *   T. Thonhauser, V. R. Cooper, S. Li, A. Puzder, P. Hyldgaard, and
     *   D. C. Langreth, Phys. Rev. B 76, 125112 (2007).
     *
     *   G. Roman-Perez and J. M. Soler, Phys. Rev. Lett. 103, 096102 (2009).
     *
     *
     * If you are using vdW-DF2, please also cite:
     *
     *   K. Lee, E. D. Murray, L. Kong, B. I. Lundqvist, and
     *   D. C. Langreth, Phys. Rev. B 82, 081101(R) (2010).
     *
     *
     * If you are calculating the stress with vdW-DF, please also cite:
     *
     *   R. Sabatini, E. Kucukbenli, B. Kolb, T. Thonhauser, and
     *   S. de Gironcoli, J. Phys.: Condens. Matter 24, 424209 (2012).
     *
     ************************************************************************

     Carrying out vdW-DF run using the following parameters:

     Nqs =      20    Nr_points =    1024   r_max =   100.000
     q_mesh =
               0.00001000     0.04494208     0.09755937     0.15916263
               0.23128650     0.31572767     0.41458969     0.53033537
               0.66584808     0.82450364     1.01025438     1.22772762
               1.48234092     1.78043706     2.12944203     2.53805004
               3.01644009     3.57652955     4.23227104     5.00000000

     Gradients computed in reciprocal space

     ************************************************************************


     Starting wfc are  654 randomized atomic wfcs

     total cpu time spent up to now is      104.9 secs

     Self-consistent Calculation

     iteration #  1     ecut=    50.00 Ry     beta=0.70
     Davidson diagonalization with overlap
     ethr =  1.00E-02,  avg # of iterations =  3.0

     Threshold (ethr) on eigenvalues was too large:
     Diagonalizing with lowered threshold

     Davidson diagonalization with overlap
     ethr =  4.30E-04,  avg # of iterations =  3.0

     negative rho (up, down):  1.947E+00 0.000E+00

     total cpu time spent up to now is      506.5 secs

     total energy              =   -7423.00187231 Ry
     Harris-Foulkes estimate   =   -7426.09379889 Ry
     estimated scf accuracy    <       3.81494869 Ry

     iteration #  2     ecut=    50.00 Ry     beta=0.70
     Davidson diagonalization with overlap
     ethr =  4.77E-04,  avg # of iterations = 11.3

     negative rho (up, down):  1.941E+00 0.000E+00

     total cpu time spent up to now is     1248.9 secs

     total energy              =   -7414.47518847 Ry
     Harris-Foulkes estimate   =   -7432.81178218 Ry
     estimated scf accuracy    <      97.41497293 Ry

     iteration #  3     ecut=    50.00 Ry     beta=0.70
     Davidson diagonalization with overlap
     ethr =  4.77E-04,  avg # of iterations =  6.2

     negative rho (up, down):  1.951E+00 0.000E+00

     total cpu time spent up to now is     1697.1 secs

     total energy              =   -7424.09970319 Ry
     Harris-Foulkes estimate   =   -7425.87728475 Ry
     estimated scf accuracy    <       7.49705202 Ry

     iteration #  4     ecut=    50.00 Ry     beta=0.70
     Davidson diagonalization with overlap
     ethr =  4.77E-04,  avg # of iterations =  6.0

     negative rho (up, down):  1.954E+00 0.000E+00

     total cpu time spent up to now is     1948.0 secs

     total energy              =   -7424.76959599 Ry
     Harris-Foulkes estimate   =   -7425.72476424 Ry
     estimated scf accuracy    <       5.82047880 Ry

     iteration #  5     ecut=    50.00 Ry     beta=0.70
     Davidson diagonalization with overlap
     ethr =  4.77E-04,  avg # of iterations =  6.5

     negative rho (up, down):  1.962E+00 0.000E+00

     total cpu time spent up to now is     2206.2 secs

     total energy              =   -7425.12600821 Ry
     Harris-Foulkes estimate   =   -7425.54294822 Ry
     estimated scf accuracy    <       3.02609340 Ry

     iteration #  6     ecut=    50.00 Ry     beta=0.70
     Davidson diagonalization with overlap
     ethr =  3.78E-04,  avg # of iterations =  5.5

     negative rho (up, down):  1.966E+00 0.000E+00

     total cpu time spent up to now is     2433.8 secs

     total energy              =   -7425.28404586 Ry
     Harris-Foulkes estimate   =   -7425.33189018 Ry
     estimated scf accuracy    <       0.15785701 Ry

     iteration #  7     ecut=    50.00 Ry     beta=0.70
     Davidson diagonalization with overlap
     ethr =  1.97E-05,  avg # of iterations = 11.2

     negative rho (up, down):  1.969E+00 0.000E+00

     total cpu time spent up to now is     2781.0 secs

     total energy              =   -7425.28617471 Ry
     Harris-Foulkes estimate   =   -7425.32332127 Ry
     estimated scf accuracy    <       0.17000642 Ry

     iteration #  8     ecut=    50.00 Ry     beta=0.70
     Davidson diagonalization with overlap
     ethr =  1.97E-05,  avg # of iterations =  3.3

     negative rho (up, down):  1.970E+00 0.000E+00

     total cpu time spent up to now is     2995.0 secs

     total energy              =   -7425.28966861 Ry
     Harris-Foulkes estimate   =   -7425.31072824 Ry
     estimated scf accuracy    <       0.09139623 Ry

     iteration #  9     ecut=    50.00 Ry     beta=0.70
     Davidson diagonalization with overlap
     ethr =  1.14E-05,  avg # of iterations =  7.0

     negative rho (up, down):  1.971E+00 0.000E+00

     total cpu time spent up to now is     3245.4 secs

     total energy              =   -7425.29280569 Ry
     Harris-Foulkes estimate   =   -7425.30371509 Ry
     estimated scf accuracy    <       0.04066781 Ry

     iteration # 10     ecut=    50.00 Ry     beta=0.70
     Davidson diagonalization with overlap
     ethr =  5.08E-06,  avg # of iterations =  6.2

     negative rho (up, down):  1.972E+00 0.000E+00

     total cpu time spent up to now is     3499.7 secs

     total energy              =   -7425.29538893 Ry
     Harris-Foulkes estimate   =   -7425.29830630 Ry
     estimated scf accuracy    <       0.00836822 Ry

     iteration # 11     ecut=    50.00 Ry     beta=0.70
     Davidson diagonalization with overlap
     ethr =  1.05E-06,  avg # of iterations = 17.3

     negative rho (up, down):  1.973E+00 0.000E+00

     total cpu time spent up to now is     3904.2 secs

     total energy              =   -7425.29609496 Ry
     Harris-Foulkes estimate   =   -7425.29703758 Ry
     estimated scf accuracy    <       0.00327400 Ry

     iteration # 12     ecut=    50.00 Ry     beta=0.70
     Davidson diagonalization with overlap
     ethr =  4.09E-07,  avg # of iterations =  2.7

     negative rho (up, down):  1.974E+00 0.000E+00

     total cpu time spent up to now is     4098.8 secs

     total energy              =   -7425.29579997 Ry
     Harris-Foulkes estimate   =   -7425.29653513 Ry
     estimated scf accuracy    <       0.00110373 Ry

     iteration # 13     ecut=    50.00 Ry     beta=0.70
     Davidson diagonalization with overlap
     ethr =  1.38E-07,  avg # of iterations =  5.0

     negative rho (up, down):  1.974E+00 0.000E+00

     total cpu time spent up to now is     4435.7 secs

     total energy              =   -7425.29526135 Ry
     Harris-Foulkes estimate   =   -7425.29714633 Ry
     estimated scf accuracy    <       0.00831928 Ry

     iteration # 14     ecut=    50.00 Ry     beta=0.70
     Davidson diagonalization with overlap
     ethr =  1.38E-07,  avg # of iterations =  3.0

     negative rho (up, down):  1.974E+00 0.000E+00

     total cpu time spent up to now is     4707.5 secs

     total energy              =   -7425.29606470 Ry
     Harris-Foulkes estimate   =   -7425.29628886 Ry
     estimated scf accuracy    <       0.00100227 Ry

     iteration # 15     ecut=    50.00 Ry     beta=0.70
     Davidson diagonalization with overlap
     ethr =  1.25E-07,  avg # of iterations =  2.0

     negative rho (up, down):  1.974E+00 0.000E+00

     total cpu time spent up to now is     4898.3 secs

     total energy              =   -7425.29617774 Ry
     Harris-Foulkes estimate   =   -7425.29621833 Ry
     estimated scf accuracy    <       0.00018819 Ry

     iteration # 16     ecut=    50.00 Ry     beta=0.70
     Davidson diagonalization with overlap
     ethr =  2.35E-08,  avg # of iterations =  2.0

     negative rho (up, down):  1.974E+00 0.000E+00

     total cpu time spent up to now is     5095.7 secs

     total energy              =   -7425.29616957 Ry
     Harris-Foulkes estimate   =   -7425.29623146 Ry
     estimated scf accuracy    <       0.00041199 Ry

     iteration # 17     ecut=    50.00 Ry     beta=0.70
     Davidson diagonalization with overlap
     ethr =  2.35E-08,  avg # of iterations =  2.0

     negative rho (up, down):  1.974E+00 0.000E+00

     total cpu time spent up to now is     5288.6 secs

     total energy              =   -7425.29619657 Ry
     Harris-Foulkes estimate   =   -7425.29620922 Ry
     estimated scf accuracy    <       0.00007165 Ry

     iteration # 18     ecut=    50.00 Ry     beta=0.70
     Davidson diagonalization with overlap
     ethr =  8.96E-09,  avg # of iterations =  2.0

     negative rho (up, down):  1.974E+00 0.000E+00

     total cpu time spent up to now is     5480.3 secs

     total energy              =   -7425.29620288 Ry
     Harris-Foulkes estimate   =   -7425.29620422 Ry
     estimated scf accuracy    <       0.00000526 Ry

     iteration # 19     ecut=    50.00 Ry     beta=0.70
     Davidson diagonalization with overlap
     ethr =  6.58E-10,  avg # of iterations =  3.0

     negative rho (up, down):  1.974E+00 0.000E+00

     total cpu time spent up to now is     5691.0 secs

     total energy              =   -7425.29620345 Ry
     Harris-Foulkes estimate   =   -7425.29620407 Ry
     estimated scf accuracy    <       0.00000238 Ry

     iteration # 20     ecut=    50.00 Ry     beta=0.70
     Davidson diagonalization with overlap
     ethr =  2.97E-10,  avg # of iterations =  2.0

     negative rho (up, down):  1.974E+00 0.000E+00

     total cpu time spent up to now is     5881.6 secs

     total energy              =   -7425.29620378 Ry
     Harris-Foulkes estimate   =   -7425.29620414 Ry
     estimated scf accuracy    <       0.00000225 Ry

     iteration # 21     ecut=    50.00 Ry     beta=0.70
     Davidson diagonalization with overlap
     ethr =  2.81E-10,  avg # of iterations =  2.0

     negative rho (up, down):  1.974E+00 0.000E+00

     total cpu time spent up to now is     6071.1 secs

     total energy              =   -7425.29620402 Ry
     Harris-Foulkes estimate   =   -7425.29620412 Ry
     estimated scf accuracy    <       0.00000065 Ry

     iteration # 22     ecut=    50.00 Ry     beta=0.70
     Davidson diagonalization with overlap
     ethr =  8.15E-11,  avg # of iterations =  2.0

     negative rho (up, down):  1.974E+00 0.000E+00

     total cpu time spent up to now is     6270.9 secs

     total energy              =   -7425.29620410 Ry
     Harris-Foulkes estimate   =   -7425.29620415 Ry
     estimated scf accuracy    <       0.00000015 Ry

     iteration # 23     ecut=    50.00 Ry     beta=0.70
     Davidson diagonalization with overlap
     ethr =  1.87E-11,  avg # of iterations =  3.0

     negative rho (up, down):  1.974E+00 0.000E+00

     total cpu time spent up to now is     6477.8 secs

     total energy              =   -7425.29620412 Ry
     Harris-Foulkes estimate   =   -7425.29620414 Ry
     estimated scf accuracy    <       0.00000007 Ry

     iteration # 24     ecut=    50.00 Ry     beta=0.70
     Davidson diagonalization with overlap
     ethr =  9.00E-12,  avg # of iterations =  2.0

     negative rho (up, down):  1.974E+00 0.000E+00

     total cpu time spent up to now is     6672.7 secs

     total energy              =   -7425.29620414 Ry
     Harris-Foulkes estimate   =   -7425.29620414 Ry
     estimated scf accuracy    <       0.00000007 Ry

     iteration # 25     ecut=    50.00 Ry     beta=0.70
     Davidson diagonalization with overlap
     ethr =  8.60E-12,  avg # of iterations =  2.0

     negative rho (up, down):  1.974E+00 0.000E+00

     total cpu time spent up to now is     6859.2 secs

     total energy              =   -7425.29620416 Ry
     Harris-Foulkes estimate   =   -7425.29620416 Ry
     estimated scf accuracy    <       0.00000003 Ry

     iteration # 26     ecut=    50.00 Ry     beta=0.70
     Davidson diagonalization with overlap
     ethr =  4.34E-12,  avg # of iterations =  2.0

     negative rho (up, down):  1.974E+00 0.000E+00

     total cpu time spent up to now is     7038.2 secs

     End of self-consistent calculation

          k = 0.2500 0.2500 0.0833 (167653 PWs)   bands (ev):

   -19.8492  -7.6488  -6.7138  -6.1859  -6.1843  -5.7555  -5.3483  -5.2540
    -5.2527  -5.0572  -5.0570  -4.9419  -4.9407  -4.8605  -4.8390  -4.7650
    -4.6796  -4.6764  -4.6387  -4.6372  -4.4768  -4.4604  -4.4590  -4.4573
    -4.4514  -4.3974  -4.3956  -4.3843  -4.3840  -4.3465  -4.3411  -4.3351
    -4.2942  -4.2918  -4.2582  -4.2570  -4.2100  -4.2060  -4.2002  -4.1929
    -4.1877  -4.1789  -4.1745  -4.1466  -4.1241  -4.1146  -4.1121  -4.1085
    -4.1069  -4.0709  -4.0235  -4.0115  -4.0101  -4.0074  -4.0020  -3.9949
    -3.9936  -3.9929  -3.9825  -3.9293  -3.9236  -3.8789  -3.8724  -3.8644
    -3.8397  -3.8386  -3.8180  -3.8167  -3.8129  -3.8118  -3.8093  -3.7603
    -3.7590  -3.7477  -3.7465  -3.6429  -3.6397  -3.6366  -3.6328  -3.5976
    -3.5895  -3.5752  -3.5451  -3.5435  -3.5169  -3.5142  -3.4948  -3.4937
    -3.4817  -3.4801  -3.4261  -3.4250  -3.4076  -3.3918  -3.3806  -3.3791
    -3.3784  -3.3775  -3.3506  -3.3501  -3.3140  -3.3122  -3.2916  -3.2914
    -3.2586  -3.2585  -3.2401  -3.2126  -3.2123  -3.1753  -3.1745  -3.1391
    -3.1314  -3.1308  -3.1176  -3.1165  -3.1120  -3.1108  -3.0735  -3.0636
    -3.0225  -3.0223  -3.0142  -3.0052  -3.0040  -3.0012  -2.9787  -2.9784
    -2.9579  -2.9571  -2.9554  -2.9297  -2.9296  -2.9221  -2.9195  -2.9186
    -2.8834  -2.8788  -2.8440  -2.8429  -2.8424  -2.8397  -2.8395  -2.7601
    -2.7502  -2.7467  -2.7450  -2.7445  -2.7440  -2.7396  -2.7391  -2.7390
    -2.7378  -2.7289  -2.7212  -2.7048  -2.7020  -2.7014  -2.6983  -2.6863
    -2.6821  -2.6433  -2.6426  -2.6422  -2.6393  -2.6368  -2.6204  -2.6191
    -2.6112  -2.6110  -2.6083  -2.5497  -2.5493  -2.5437  -2.5435  -2.5397
    -2.5375  -2.5104  -2.4508  -2.4502  -2.4492  -2.4478  -2.4363  -2.4353
    -2.4285  -2.4189  -2.4184  -2.3827  -2.3808  -2.3737  -2.3730  -2.3722
    -2.3706  -2.3328  -2.3314  -2.3225  -2.3220  -2.3212  -2.3202  -2.2777
    -2.2602  -2.2587  -2.2036  -2.2028  -2.1867  -2.1844  -2.1792  -2.1774
    -2.1304  -2.1294  -2.1053  -2.0913  -2.0758  -2.0748  -2.0741  -2.0532
    -2.0517  -2.0421  -2.0245  -1.9893  -1.9841  -1.9759  -1.9713  -1.9708
    -1.9617  -1.9592  -1.9467  -1.9439  -1.9418  -1.9391  -1.9361  -1.9343
    -1.9334  -1.9235  -1.9212  -1.9113  -1.9034  -1.9017  -1.8973  -1.8923
    -1.8919  -1.8747  -1.8678  -1.8638  -1.8562  -1.8531  -1.8487  -1.8413
    -1.8102  -1.7784  -1.7755  -1.7417  -1.7251  -1.7240  -1.7139  -1.7111
    -1.6909  -1.6873  -1.6757  -1.6747  -1.6731  -1.6728  -1.6700  -1.6613
    -1.6381  -1.6372  -1.6356  -1.5919  -1.5897  -1.5514  -1.5506  -1.5043
    -1.5031  -1.4908  -1.4689  -1.4629  -1.4617  -1.4445  -1.4430  -1.4265
    -1.4249  -1.4216  -1.4209  -1.4198  -1.4184  -1.4155  -1.4139  -1.3957
    -1.3948  -1.3823  -1.3678  -1.3489  -1.3483  -1.3227  -1.3222  -1.3199
    -1.3192  -1.3157  -1.3100  -1.2914  -1.2895  -1.2771  -1.2715  -1.2603
    -1.2531  -1.2397  -1.2365  -1.2086  -1.2079  -1.2004  -1.1982  -1.1651
    -1.1631  -1.1563  -1.1541  -1.1475  -1.1446  -1.1256  -1.1248  -1.1137
    -1.1068  -1.1058  -1.0943  -1.0936  -1.0924  -1.0882  -1.0784  -1.0675
    -1.0666  -1.0595  -1.0589  -1.0473  -1.0429  -1.0389  -1.0361  -0.9967
    -0.9943  -0.9881  -0.9874  -0.9868  -0.9838  -0.9475  -0.9318  -0.9302
    -0.9297  -0.9282  -0.9249  -0.9211  -0.9198  -0.9051  -0.9032  -0.8693
    -0.8648  -0.8609  -0.8597  -0.8381  -0.8374  -0.8281  -0.7984  -0.7908
    -0.7637  -0.7624  -0.7353  -0.7349  -0.7316  -0.7306  -0.7306  -0.7261
    -0.7211  -0.7209  -0.7165  -0.7161  -0.6847  -0.6837  -0.6677  -0.6639
    -0.6608  -0.6606  -0.6594  -0.6492  -0.6400  -0.3631  -0.3550  -0.3019
    -0.2871  -0.2580  -0.0983  -0.0335  -0.0318   0.0022   0.2852   0.2898
     0.6122   0.6249   0.7149   0.7160   0.7546   0.7591   0.8968   0.9076
     1.0245   1.0261   1.1140   1.7111   1.7298   1.7304   1.7688   1.7739
     1.8084   1.8283   1.8968   1.9077   2.1057   2.1091   2.3402   2.4171
     2.4304   2.4384   2.8098   2.8270   2.8917   2.8945   2.8990   2.9022
     3.0512   3.0522   3.0790   3.1887   3.2030   3.4229   3.4350   3.5612
     3.5864   3.5942   3.8555   3.8650   3.9696   3.9907   3.9920   4.0081
     4.0391   4.1768   4.1810   4.4157   4.4166   4.4898   4.5021   4.5858
     4.6277   4.6313   4.6448   4.6746   4.8403   5.3918   5.4227   5.4512
     5.5455   5.5642   5.6029   5.6638   5.7366   5.7451   5.7516   5.8505
     5.8533   5.9073   5.9092   5.9505   5.9999   6.0289   6.0948   6.1522
     6.1870   6.2145   6.2229   6.2328   6.2427   6.2460   6.2541   6.2645

          k = 0.2500 0.2500-0.2500 (167588 PWs)   bands (ev):

   -19.8492  -7.6488  -6.7138  -6.1859  -6.1843  -5.7555  -5.3483  -5.2540
    -5.2527  -5.0572  -5.0570  -4.9419  -4.9407  -4.8605  -4.8390  -4.7650
    -4.6796  -4.6764  -4.6387  -4.6372  -4.4768  -4.4604  -4.4590  -4.4573
    -4.4514  -4.3974  -4.3956  -4.3843  -4.3840  -4.3465  -4.3411  -4.3351
    -4.2942  -4.2918  -4.2582  -4.2570  -4.2100  -4.2060  -4.2002  -4.1929
    -4.1877  -4.1789  -4.1745  -4.1466  -4.1241  -4.1146  -4.1121  -4.1085
    -4.1069  -4.0709  -4.0235  -4.0115  -4.0101  -4.0074  -4.0020  -3.9949
    -3.9936  -3.9929  -3.9825  -3.9293  -3.9236  -3.8789  -3.8724  -3.8644
    -3.8397  -3.8386  -3.8180  -3.8167  -3.8129  -3.8118  -3.8093  -3.7603
    -3.7590  -3.7477  -3.7465  -3.6429  -3.6397  -3.6366  -3.6328  -3.5976
    -3.5895  -3.5752  -3.5451  -3.5435  -3.5169  -3.5142  -3.4948  -3.4937
    -3.4817  -3.4801  -3.4261  -3.4250  -3.4076  -3.3918  -3.3806  -3.3790
    -3.3784  -3.3775  -3.3506  -3.3501  -3.3140  -3.3121  -3.2916  -3.2914
    -3.2586  -3.2585  -3.2401  -3.2126  -3.2123  -3.1753  -3.1745  -3.1391
    -3.1314  -3.1308  -3.1176  -3.1165  -3.1120  -3.1108  -3.0736  -3.0636
    -3.0225  -3.0223  -3.0142  -3.0052  -3.0040  -3.0012  -2.9787  -2.9784
    -2.9579  -2.9571  -2.9554  -2.9297  -2.9296  -2.9221  -2.9194  -2.9186
    -2.8834  -2.8788  -2.8440  -2.8429  -2.8424  -2.8396  -2.8395  -2.7601
    -2.7502  -2.7467  -2.7450  -2.7445  -2.7440  -2.7396  -2.7391  -2.7390
    -2.7378  -2.7289  -2.7212  -2.7048  -2.7020  -2.7014  -2.6983  -2.6863
    -2.6821  -2.6433  -2.6426  -2.6422  -2.6393  -2.6368  -2.6204  -2.6191
    -2.6112  -2.6110  -2.6083  -2.5497  -2.5493  -2.5437  -2.5435  -2.5397
    -2.5375  -2.5104  -2.4509  -2.4502  -2.4492  -2.4478  -2.4363  -2.4352
    -2.4285  -2.4189  -2.4184  -2.3827  -2.3808  -2.3737  -2.3730  -2.3722
    -2.3706  -2.3329  -2.3314  -2.3225  -2.3220  -2.3212  -2.3202  -2.2778
    -2.2602  -2.2587  -2.2036  -2.2028  -2.1867  -2.1844  -2.1792  -2.1774
    -2.1304  -2.1294  -2.1053  -2.0913  -2.0758  -2.0748  -2.0741  -2.0532
    -2.0517  -2.0421  -2.0245  -1.9893  -1.9841  -1.9759  -1.9713  -1.9708
    -1.9617  -1.9592  -1.9467  -1.9439  -1.9418  -1.9391  -1.9361  -1.9343
    -1.9334  -1.9235  -1.9212  -1.9113  -1.9034  -1.9017  -1.8973  -1.8923
    -1.8919  -1.8747  -1.8678  -1.8638  -1.8562  -1.8531  -1.8487  -1.8412
    -1.8102  -1.7784  -1.7755  -1.7418  -1.7251  -1.7240  -1.7139  -1.7111
    -1.6909  -1.6873  -1.6757  -1.6747  -1.6731  -1.6728  -1.6700  -1.6613
    -1.6381  -1.6372  -1.6356  -1.5919  -1.5897  -1.5514  -1.5506  -1.5043
    -1.5031  -1.4909  -1.4689  -1.4629  -1.4617  -1.4445  -1.4430  -1.4265
    -1.4249  -1.4216  -1.4209  -1.4198  -1.4184  -1.4155  -1.4139  -1.3957
    -1.3948  -1.3823  -1.3678  -1.3489  -1.3483  -1.3227  -1.3222  -1.3199
    -1.3192  -1.3157  -1.3100  -1.2914  -1.2895  -1.2771  -1.2715  -1.2603
    -1.2531  -1.2397  -1.2365  -1.2086  -1.2079  -1.2004  -1.1982  -1.1651
    -1.1631  -1.1562  -1.1541  -1.1475  -1.1446  -1.1256  -1.1248  -1.1136
    -1.1068  -1.1058  -1.0943  -1.0936  -1.0924  -1.0882  -1.0784  -1.0675
    -1.0666  -1.0595  -1.0589  -1.0472  -1.0429  -1.0389  -1.0361  -0.9967
    -0.9943  -0.9881  -0.9874  -0.9868  -0.9838  -0.9475  -0.9317  -0.9302
    -0.9297  -0.9282  -0.9249  -0.9211  -0.9198  -0.9051  -0.9032  -0.8693
    -0.8648  -0.8610  -0.8597  -0.8381  -0.8374  -0.8281  -0.7984  -0.7908
    -0.7637  -0.7624  -0.7353  -0.7349  -0.7316  -0.7306  -0.7306  -0.7261
    -0.7211  -0.7209  -0.7165  -0.7161  -0.6847  -0.6837  -0.6677  -0.6639
    -0.6608  -0.6606  -0.6594  -0.6492  -0.6400  -0.3631  -0.3550  -0.3019
    -0.2871  -0.2580  -0.0983  -0.0335  -0.0318   0.0022   0.2852   0.2898
     0.6122   0.6249   0.7149   0.7160   0.7547   0.7591   0.8968   0.9076
     1.0245   1.0261   1.1140   1.7111   1.7298   1.7304   1.7688   1.7739
     1.8084   1.8283   1.8968   1.9077   2.1057   2.1091   2.3402   2.4171
     2.4304   2.4384   2.8098   2.8270   2.8917   2.8945   2.8990   2.9022
     3.0512   3.0522   3.0790   3.1887   3.2030   3.4229   3.4350   3.5612
     3.5864   3.5942   3.8556   3.8650   3.9696   3.9907   3.9920   4.0083
     4.0392   4.1768   4.1810   4.4157   4.4166   4.4896   4.5021   4.5848
     4.6277   4.6313   4.6447   4.6745   4.8392   5.3898   5.4121   5.4349
     5.5452   5.5636   5.6197   5.7240   5.7367   5.7449   5.7486   5.8503
     5.8533   5.9072   5.9093   5.9506   5.9858   6.0587   6.0734   6.1859
     6.2003   6.2197   6.2284   6.2339   6.2426   6.2488   6.2536   6.2642

          k =-0.2500-0.2500 0.0833 (167653 PWs)   bands (ev):

   -19.8492  -7.6488  -6.7138  -6.1859  -6.1843  -5.7555  -5.3483  -5.2540
    -5.2527  -5.0572  -5.0570  -4.9419  -4.9407  -4.8605  -4.8390  -4.7650
    -4.6796  -4.6764  -4.6387  -4.6372  -4.4768  -4.4604  -4.4590  -4.4573
    -4.4514  -4.3974  -4.3956  -4.3843  -4.3840  -4.3465  -4.3411  -4.3351
    -4.2942  -4.2918  -4.2582  -4.2570  -4.2100  -4.2060  -4.2002  -4.1929
    -4.1877  -4.1789  -4.1745  -4.1466  -4.1241  -4.1146  -4.1121  -4.1085
    -4.1069  -4.0709  -4.0235  -4.0115  -4.0101  -4.0074  -4.0020  -3.9949
    -3.9936  -3.9929  -3.9825  -3.9293  -3.9236  -3.8789  -3.8724  -3.8644
    -3.8397  -3.8386  -3.8180  -3.8167  -3.8129  -3.8118  -3.8093  -3.7603
    -3.7590  -3.7477  -3.7465  -3.6429  -3.6397  -3.6366  -3.6328  -3.5976
    -3.5895  -3.5752  -3.5451  -3.5435  -3.5169  -3.5142  -3.4948  -3.4937
    -3.4817  -3.4801  -3.4261  -3.4250  -3.4076  -3.3918  -3.3806  -3.3791
    -3.3784  -3.3775  -3.3506  -3.3501  -3.3140  -3.3122  -3.2916  -3.2914
    -3.2586  -3.2585  -3.2401  -3.2126  -3.2123  -3.1753  -3.1745  -3.1391
    -3.1314  -3.1308  -3.1176  -3.1165  -3.1120  -3.1108  -3.0735  -3.0636
    -3.0225  -3.0223  -3.0142  -3.0052  -3.0040  -3.0012  -2.9787  -2.9784
    -2.9579  -2.9571  -2.9554  -2.9297  -2.9296  -2.9221  -2.9195  -2.9186
    -2.8834  -2.8788  -2.8440  -2.8429  -2.8424  -2.8397  -2.8395  -2.7601
    -2.7502  -2.7467  -2.7450  -2.7445  -2.7440  -2.7396  -2.7391  -2.7390
    -2.7378  -2.7289  -2.7212  -2.7048  -2.7020  -2.7014  -2.6983  -2.6863
    -2.6821  -2.6433  -2.6426  -2.6422  -2.6393  -2.6368  -2.6204  -2.6191
    -2.6112  -2.6110  -2.6083  -2.5497  -2.5493  -2.5437  -2.5435  -2.5397
    -2.5375  -2.5104  -2.4508  -2.4502  -2.4492  -2.4478  -2.4363  -2.4353
    -2.4285  -2.4189  -2.4184  -2.3827  -2.3808  -2.3737  -2.3730  -2.3722
    -2.3706  -2.3328  -2.3314  -2.3225  -2.3220  -2.3212  -2.3202  -2.2777
    -2.2602  -2.2587  -2.2036  -2.2028  -2.1867  -2.1844  -2.1792  -2.1774
    -2.1304  -2.1294  -2.1053  -2.0913  -2.0758  -2.0748  -2.0741  -2.0532
    -2.0517  -2.0421  -2.0245  -1.9893  -1.9841  -1.9759  -1.9713  -1.9708
    -1.9617  -1.9592  -1.9467  -1.9439  -1.9418  -1.9391  -1.9361  -1.9343
    -1.9334  -1.9235  -1.9212  -1.9113  -1.9034  -1.9017  -1.8973  -1.8923
    -1.8919  -1.8747  -1.8678  -1.8638  -1.8562  -1.8531  -1.8487  -1.8413
    -1.8102  -1.7784  -1.7755  -1.7417  -1.7251  -1.7240  -1.7139  -1.7111
    -1.6909  -1.6873  -1.6757  -1.6747  -1.6731  -1.6728  -1.6700  -1.6613
    -1.6381  -1.6372  -1.6356  -1.5919  -1.5897  -1.5514  -1.5506  -1.5043
    -1.5031  -1.4908  -1.4689  -1.4629  -1.4617  -1.4445  -1.4430  -1.4265
    -1.4249  -1.4216  -1.4209  -1.4198  -1.4184  -1.4155  -1.4139  -1.3957
    -1.3948  -1.3823  -1.3678  -1.3489  -1.3483  -1.3227  -1.3222  -1.3199
    -1.3192  -1.3157  -1.3100  -1.2914  -1.2895  -1.2771  -1.2715  -1.2603
    -1.2531  -1.2397  -1.2365  -1.2086  -1.2079  -1.2004  -1.1982  -1.1651
    -1.1631  -1.1563  -1.1541  -1.1475  -1.1446  -1.1256  -1.1248  -1.1137
    -1.1068  -1.1058  -1.0943  -1.0936  -1.0924  -1.0882  -1.0784  -1.0675
    -1.0666  -1.0595  -1.0589  -1.0473  -1.0429  -1.0389  -1.0361  -0.9967
    -0.9943  -0.9881  -0.9874  -0.9868  -0.9838  -0.9475  -0.9318  -0.9302
    -0.9297  -0.9282  -0.9249  -0.9211  -0.9198  -0.9051  -0.9032  -0.8693
    -0.8648  -0.8609  -0.8597  -0.8381  -0.8374  -0.8281  -0.7984  -0.7908
    -0.7637  -0.7624  -0.7353  -0.7349  -0.7316  -0.7306  -0.7306  -0.7261
    -0.7211  -0.7209  -0.7165  -0.7161  -0.6847  -0.6837  -0.6677  -0.6639
    -0.6608  -0.6606  -0.6594  -0.6492  -0.6400  -0.3631  -0.3550  -0.3019
    -0.2871  -0.2580  -0.0983  -0.0335  -0.0318   0.0022   0.2852   0.2898
     0.6122   0.6249   0.7149   0.7160   0.7546   0.7591   0.8968   0.9076
     1.0245   1.0261   1.1140   1.7111   1.7298   1.7304   1.7688   1.7739
     1.8084   1.8283   1.8968   1.9077   2.1057   2.1091   2.3402   2.4171
     2.4304   2.4384   2.8098   2.8270   2.8917   2.8945   2.8990   2.9022
     3.0512   3.0522   3.0790   3.1887   3.2030   3.4229   3.4350   3.5612
     3.5864   3.5942   3.8555   3.8650   3.9696   3.9907   3.9920   4.0081
     4.0391   4.1768   4.1810   4.4157   4.4166   4.4898   4.5021   4.5858
     4.6277   4.6313   4.6448   4.6746   4.8403   5.3918   5.4227   5.4508
     5.5456   5.5642   5.6038   5.6634   5.7366   5.7451   5.7516   5.8505
     5.8533   5.9073   5.9092   5.9505   6.0003   6.0279   6.0937   6.1531
     6.1869   6.2146   6.2232   6.2328   6.2427   6.2460   6.2541   6.2645

          k =-0.2500 0.2500-0.0833 (167653 PWs)   bands (ev):

   -19.8492  -7.6488  -6.7138  -6.1860  -6.1842  -5.7555  -5.3483  -5.2541
    -5.2526  -5.0572  -5.0570  -4.9418  -4.9409  -4.8605  -4.8391  -4.7650
    -4.6796  -4.6764  -4.6387  -4.6372  -4.4768  -4.4604  -4.4591  -4.4572
    -4.4514  -4.3974  -4.3956  -4.3844  -4.3840  -4.3465  -4.3409  -4.3352
    -4.2941  -4.2918  -4.2582  -4.2570  -4.2099  -4.2061  -4.2002  -4.1929
    -4.1877  -4.1789  -4.1745  -4.1466  -4.1241  -4.1145  -4.1122  -4.1085
    -4.1068  -4.0710  -4.0235  -4.0115  -4.0100  -4.0075  -4.0019  -3.9948
    -3.9936  -3.9930  -3.9824  -3.9295  -3.9235  -3.8789  -3.8724  -3.8644
    -3.8397  -3.8386  -3.8178  -3.8169  -3.8126  -3.8119  -3.8093  -3.7603
    -3.7590  -3.7478  -3.7464  -3.6430  -3.6396  -3.6367  -3.6328  -3.5976
    -3.5895  -3.5752  -3.5451  -3.5435  -3.5170  -3.5141  -3.4949  -3.4937
    -3.4818  -3.4800  -3.4261  -3.4249  -3.4075  -3.3918  -3.3806  -3.3790
    -3.3784  -3.3775  -3.3506  -3.3501  -3.3140  -3.3121  -3.2917  -3.2913
    -3.2586  -3.2585  -3.2401  -3.2125  -3.2123  -3.1754  -3.1745  -3.1391
    -3.1314  -3.1308  -3.1176  -3.1165  -3.1120  -3.1108  -3.0735  -3.0636
    -3.0225  -3.0223  -3.0142  -3.0048  -3.0045  -3.0011  -2.9787  -2.9784
    -2.9580  -2.9572  -2.9552  -2.9297  -2.9296  -2.9221  -2.9194  -2.9186
    -2.8834  -2.8788  -2.8441  -2.8429  -2.8423  -2.8396  -2.8396  -2.7601
    -2.7502  -2.7468  -2.7449  -2.7445  -2.7439  -2.7397  -2.7391  -2.7390
    -2.7378  -2.7289  -2.7212  -2.7049  -2.7020  -2.7014  -2.6983  -2.6863
    -2.6820  -2.6432  -2.6428  -2.6421  -2.6394  -2.6368  -2.6204  -2.6190
    -2.6112  -2.6110  -2.6083  -2.5497  -2.5493  -2.5437  -2.5436  -2.5395
    -2.5375  -2.5105  -2.4508  -2.4503  -2.4491  -2.4478  -2.4363  -2.4351
    -2.4285  -2.4189  -2.4184  -2.3828  -2.3808  -2.3738  -2.3731  -2.3721
    -2.3706  -2.3329  -2.3314  -2.3225  -2.3220  -2.3211  -2.3201  -2.2777
    -2.2602  -2.2593  -2.2036  -2.2028  -2.1869  -2.1842  -2.1792  -2.1776
    -2.1305  -2.1298  -2.1053  -2.0917  -2.0756  -2.0748  -2.0741  -2.0530
    -2.0517  -2.0421  -2.0245  -1.9888  -1.9842  -1.9772  -1.9713  -1.9708
    -1.9607  -1.9592  -1.9462  -1.9438  -1.9421  -1.9390  -1.9363  -1.9346
    -1.9337  -1.9237  -1.9210  -1.9112  -1.9035  -1.9017  -1.8965  -1.8921
    -1.8919  -1.8748  -1.8676  -1.8623  -1.8561  -1.8533  -1.8493  -1.8399
    -1.8101  -1.7786  -1.7754  -1.7417  -1.7252  -1.7238  -1.7139  -1.7117
    -1.6910  -1.6860  -1.6757  -1.6747  -1.6731  -1.6728  -1.6701  -1.6639
    -1.6381  -1.6372  -1.6354  -1.5921  -1.5895  -1.5514  -1.5506  -1.5044
    -1.5029  -1.4908  -1.4690  -1.4629  -1.4617  -1.4444  -1.4433  -1.4266
    -1.4246  -1.4217  -1.4208  -1.4199  -1.4181  -1.4155  -1.4139  -1.3957
    -1.3949  -1.3822  -1.3678  -1.3489  -1.3485  -1.3227  -1.3223  -1.3200
    -1.3191  -1.3155  -1.3097  -1.2917  -1.2893  -1.2774  -1.2714  -1.2601
    -1.2531  -1.2398  -1.2364  -1.2086  -1.2079  -1.2005  -1.1982  -1.1653
    -1.1627  -1.1563  -1.1540  -1.1477  -1.1446  -1.1257  -1.1247  -1.1137
    -1.1069  -1.1057  -1.0944  -1.0937  -1.0923  -1.0880  -1.0784  -1.0673
    -1.0666  -1.0596  -1.0589  -1.0472  -1.0433  -1.0389  -1.0361  -0.9968
    -0.9941  -0.9881  -0.9875  -0.9867  -0.9839  -0.9475  -0.9319  -0.9301
    -0.9296  -0.9281  -0.9253  -0.9209  -0.9198  -0.9052  -0.9031  -0.8695
    -0.8647  -0.8610  -0.8596  -0.8382  -0.8373  -0.8281  -0.7985  -0.7908
    -0.7638  -0.7623  -0.7353  -0.7349  -0.7316  -0.7306  -0.7306  -0.7261
    -0.7210  -0.7210  -0.7166  -0.7160  -0.6848  -0.6836  -0.6679  -0.6639
    -0.6609  -0.6605  -0.6596  -0.6487  -0.6401  -0.3631  -0.3550  -0.3024
    -0.2867  -0.2580  -0.0981  -0.0336  -0.0316   0.0023   0.2849   0.2900
     0.6117   0.6253   0.7148   0.7161   0.7544   0.7595   0.8962   0.9081
     1.0245   1.0261   1.1141   1.7113   1.7298   1.7303   1.7685   1.7739
     1.8074   1.8291   1.8964   1.9084   2.1055   2.1093   2.3401   2.4166
     2.4307   2.4385   2.8089   2.8273   2.8916   2.8946   2.8989   2.9024
     3.0513   3.0521   3.0784   3.1879   3.2048   3.4228   3.4360   3.5611
     3.5861   3.5945   3.8550   3.8657   3.9710   3.9917   3.9919   4.0090
     4.0364   4.1766   4.1813   4.4157   4.4168   4.4918   4.5016   4.5764
     4.6274   4.6314   4.6438   4.6756   4.8476   5.3863   5.4250   5.4608
     5.5421   5.5663   5.6015   5.6533   5.7362   5.7458   5.7519   5.8500
     5.8536   5.9071   5.9096   5.9510   6.0025   6.0233   6.1026   6.1494
     6.1858   6.2171   6.2268   6.2328   6.2412   6.2453   6.2552   6.2635

          k = 0.2500-0.2500-0.0833 (167653 PWs)   bands (ev):

   -19.8492  -7.6488  -6.7138  -6.1860  -6.1842  -5.7555  -5.3483  -5.2541
    -5.2526  -5.0572  -5.0570  -4.9418  -4.9409  -4.8605  -4.8391  -4.7650
    -4.6796  -4.6764  -4.6387  -4.6372  -4.4768  -4.4604  -4.4591  -4.4572
    -4.4514  -4.3974  -4.3956  -4.3844  -4.3840  -4.3465  -4.3409  -4.3352
    -4.2941  -4.2918  -4.2582  -4.2570  -4.2099  -4.2061  -4.2002  -4.1929
    -4.1877  -4.1789  -4.1745  -4.1466  -4.1241  -4.1145  -4.1122  -4.1085
    -4.1068  -4.0710  -4.0235  -4.0115  -4.0100  -4.0075  -4.0019  -3.9948
    -3.9936  -3.9930  -3.9824  -3.9295  -3.9235  -3.8789  -3.8724  -3.8644
    -3.8397  -3.8386  -3.8178  -3.8169  -3.8126  -3.8119  -3.8093  -3.7603
    -3.7590  -3.7478  -3.7464  -3.6430  -3.6396  -3.6367  -3.6328  -3.5976
    -3.5895  -3.5752  -3.5451  -3.5435  -3.5170  -3.5141  -3.4949  -3.4937
    -3.4818  -3.4800  -3.4261  -3.4249  -3.4075  -3.3918  -3.3806  -3.3790
    -3.3784  -3.3775  -3.3506  -3.3501  -3.3140  -3.3121  -3.2917  -3.2913
    -3.2586  -3.2585  -3.2401  -3.2125  -3.2123  -3.1754  -3.1745  -3.1391
    -3.1314  -3.1308  -3.1176  -3.1165  -3.1120  -3.1108  -3.0735  -3.0636
    -3.0225  -3.0223  -3.0142  -3.0048  -3.0045  -3.0011  -2.9787  -2.9784
    -2.9580  -2.9572  -2.9552  -2.9297  -2.9296  -2.9221  -2.9194  -2.9186
    -2.8834  -2.8788  -2.8441  -2.8429  -2.8423  -2.8396  -2.8396  -2.7601
    -2.7502  -2.7468  -2.7449  -2.7445  -2.7439  -2.7397  -2.7391  -2.7390
    -2.7378  -2.7289  -2.7212  -2.7049  -2.7020  -2.7014  -2.6983  -2.6863
    -2.6820  -2.6432  -2.6428  -2.6421  -2.6394  -2.6368  -2.6204  -2.6190
    -2.6112  -2.6110  -2.6083  -2.5497  -2.5493  -2.5437  -2.5436  -2.5395
    -2.5375  -2.5105  -2.4508  -2.4503  -2.4491  -2.4478  -2.4363  -2.4351
    -2.4285  -2.4189  -2.4184  -2.3828  -2.3808  -2.3738  -2.3731  -2.3721
    -2.3706  -2.3329  -2.3314  -2.3225  -2.3220  -2.3211  -2.3201  -2.2777
    -2.2602  -2.2593  -2.2036  -2.2028  -2.1869  -2.1842  -2.1792  -2.1776
    -2.1305  -2.1298  -2.1053  -2.0917  -2.0756  -2.0748  -2.0741  -2.0530
    -2.0517  -2.0421  -2.0245  -1.9888  -1.9842  -1.9772  -1.9713  -1.9708
    -1.9607  -1.9592  -1.9462  -1.9438  -1.9421  -1.9390  -1.9363  -1.9346
    -1.9337  -1.9237  -1.9210  -1.9112  -1.9035  -1.9017  -1.8965  -1.8921
    -1.8919  -1.8748  -1.8676  -1.8623  -1.8561  -1.8533  -1.8493  -1.8399
    -1.8101  -1.7786  -1.7754  -1.7417  -1.7252  -1.7238  -1.7139  -1.7117
    -1.6910  -1.6860  -1.6757  -1.6747  -1.6731  -1.6728  -1.6701  -1.6639
    -1.6381  -1.6372  -1.6354  -1.5921  -1.5895  -1.5514  -1.5506  -1.5044
    -1.5029  -1.4908  -1.4690  -1.4629  -1.4617  -1.4444  -1.4433  -1.4266
    -1.4246  -1.4217  -1.4208  -1.4199  -1.4181  -1.4155  -1.4139  -1.3957
    -1.3949  -1.3822  -1.3678  -1.3489  -1.3485  -1.3227  -1.3223  -1.3200
    -1.3191  -1.3155  -1.3097  -1.2917  -1.2893  -1.2774  -1.2714  -1.2601
    -1.2531  -1.2398  -1.2364  -1.2086  -1.2079  -1.2005  -1.1982  -1.1653
    -1.1627  -1.1563  -1.1540  -1.1477  -1.1446  -1.1257  -1.1247  -1.1137
    -1.1069  -1.1057  -1.0944  -1.0937  -1.0923  -1.0880  -1.0784  -1.0673
    -1.0666  -1.0596  -1.0589  -1.0472  -1.0433  -1.0389  -1.0361  -0.9968
    -0.9941  -0.9881  -0.9875  -0.9867  -0.9839  -0.9475  -0.9319  -0.9301
    -0.9296  -0.9281  -0.9253  -0.9209  -0.9198  -0.9052  -0.9031  -0.8695
    -0.8647  -0.8610  -0.8596  -0.8382  -0.8373  -0.8281  -0.7985  -0.7908
    -0.7638  -0.7623  -0.7353  -0.7349  -0.7316  -0.7306  -0.7306  -0.7261
    -0.7210  -0.7210  -0.7166  -0.7160  -0.6848  -0.6836  -0.6679  -0.6639
    -0.6609  -0.6605  -0.6596  -0.6487  -0.6401  -0.3631  -0.3550  -0.3024
    -0.2867  -0.2580  -0.0981  -0.0336  -0.0316   0.0023   0.2849   0.2900
     0.6117   0.6253   0.7148   0.7161   0.7544   0.7595   0.8962   0.9081
     1.0245   1.0261   1.1141   1.7113   1.7298   1.7303   1.7685   1.7739
     1.8074   1.8291   1.8964   1.9084   2.1055   2.1093   2.3401   2.4166
     2.4307   2.4385   2.8089   2.8273   2.8916   2.8946   2.8989   2.9024
     3.0513   3.0521   3.0784   3.1879   3.2048   3.4228   3.4360   3.5611
     3.5861   3.5945   3.8550   3.8657   3.9710   3.9917   3.9919   4.0090
     4.0364   4.1766   4.1813   4.4157   4.4168   4.4918   4.5016   4.5764
     4.6274   4.6314   4.6438   4.6756   4.8476   5.3864   5.4249   5.4611
     5.5419   5.5663   5.6007   5.6537   5.7362   5.7458   5.7519   5.8500
     5.8536   5.9071   5.9096   5.9510   6.0023   6.0240   6.1040   6.1483
     6.1859   6.2172   6.2261   6.2330   6.2413   6.2453   6.2552   6.2635

          k =-0.2500 0.2500 0.2500 (167588 PWs)   bands (ev):

   -19.8491  -7.6488  -6.7138  -6.1860  -6.1842  -5.7555  -5.3483  -5.2541
    -5.2526  -5.0572  -5.0570  -4.9418  -4.9409  -4.8605  -4.8391  -4.7650
    -4.6796  -4.6764  -4.6386  -4.6372  -4.4769  -4.4604  -4.4591  -4.4572
    -4.4514  -4.3974  -4.3956  -4.3844  -4.3840  -4.3465  -4.3409  -4.3352
    -4.2941  -4.2918  -4.2582  -4.2570  -4.2099  -4.2061  -4.2002  -4.1929
    -4.1877  -4.1789  -4.1745  -4.1466  -4.1241  -4.1145  -4.1122  -4.1085
    -4.1068  -4.0710  -4.0235  -4.0115  -4.0100  -4.0075  -4.0019  -3.9948
    -3.9936  -3.9930  -3.9824  -3.9295  -3.9235  -3.8789  -3.8724  -3.8644
    -3.8397  -3.8386  -3.8178  -3.8169  -3.8126  -3.8119  -3.8093  -3.7603
    -3.7590  -3.7478  -3.7464  -3.6430  -3.6396  -3.6367  -3.6328  -3.5976
    -3.5895  -3.5752  -3.5451  -3.5435  -3.5170  -3.5141  -3.4949  -3.4937
    -3.4818  -3.4800  -3.4261  -3.4249  -3.4076  -3.3918  -3.3806  -3.3790
    -3.3784  -3.3775  -3.3506  -3.3501  -3.3140  -3.3121  -3.2917  -3.2913
    -3.2586  -3.2585  -3.2401  -3.2125  -3.2123  -3.1753  -3.1745  -3.1391
    -3.1314  -3.1308  -3.1176  -3.1165  -3.1120  -3.1108  -3.0736  -3.0636
    -3.0225  -3.0223  -3.0142  -3.0048  -3.0045  -3.0011  -2.9787  -2.9784
    -2.9580  -2.9572  -2.9552  -2.9297  -2.9296  -2.9221  -2.9194  -2.9186
    -2.8834  -2.8788  -2.8441  -2.8429  -2.8423  -2.8396  -2.8396  -2.7601
    -2.7502  -2.7468  -2.7449  -2.7445  -2.7439  -2.7397  -2.7391  -2.7390
    -2.7378  -2.7289  -2.7212  -2.7049  -2.7020  -2.7014  -2.6982  -2.6863
    -2.6820  -2.6432  -2.6428  -2.6421  -2.6394  -2.6368  -2.6204  -2.6190
    -2.6112  -2.6110  -2.6083  -2.5497  -2.5493  -2.5437  -2.5436  -2.5395
    -2.5375  -2.5105  -2.4508  -2.4503  -2.4491  -2.4478  -2.4363  -2.4351
    -2.4285  -2.4189  -2.4184  -2.3828  -2.3808  -2.3738  -2.3731  -2.3721
    -2.3706  -2.3329  -2.3314  -2.3225  -2.3220  -2.3211  -2.3201  -2.2777
    -2.2602  -2.2593  -2.2036  -2.2028  -2.1869  -2.1842  -2.1792  -2.1776
    -2.1305  -2.1298  -2.1053  -2.0917  -2.0756  -2.0748  -2.0741  -2.0530
    -2.0517  -2.0421  -2.0245  -1.9888  -1.9842  -1.9772  -1.9713  -1.9708
    -1.9607  -1.9592  -1.9462  -1.9438  -1.9422  -1.9391  -1.9363  -1.9346
    -1.9337  -1.9237  -1.9210  -1.9112  -1.9035  -1.9017  -1.8965  -1.8921
    -1.8919  -1.8748  -1.8677  -1.8623  -1.8561  -1.8532  -1.8493  -1.8399
    -1.8101  -1.7786  -1.7754  -1.7418  -1.7252  -1.7238  -1.7139  -1.7117
    -1.6910  -1.6860  -1.6757  -1.6747  -1.6731  -1.6728  -1.6701  -1.6639
    -1.6381  -1.6372  -1.6354  -1.5921  -1.5895  -1.5514  -1.5506  -1.5044
    -1.5029  -1.4908  -1.4690  -1.4629  -1.4618  -1.4444  -1.4433  -1.4266
    -1.4246  -1.4217  -1.4208  -1.4199  -1.4181  -1.4155  -1.4139  -1.3957
    -1.3949  -1.3822  -1.3678  -1.3489  -1.3485  -1.3227  -1.3223  -1.3200
    -1.3191  -1.3155  -1.3097  -1.2917  -1.2893  -1.2774  -1.2714  -1.2601
    -1.2531  -1.2398  -1.2364  -1.2086  -1.2079  -1.2005  -1.1982  -1.1653
    -1.1627  -1.1563  -1.1540  -1.1477  -1.1446  -1.1257  -1.1247  -1.1137
    -1.1069  -1.1057  -1.0944  -1.0937  -1.0923  -1.0880  -1.0784  -1.0673
    -1.0666  -1.0596  -1.0589  -1.0472  -1.0433  -1.0389  -1.0361  -0.9968
    -0.9941  -0.9881  -0.9875  -0.9867  -0.9839  -0.9475  -0.9319  -0.9301
    -0.9296  -0.9281  -0.9253  -0.9209  -0.9198  -0.9052  -0.9031  -0.8695
    -0.8647  -0.8610  -0.8596  -0.8382  -0.8373  -0.8281  -0.7985  -0.7908
    -0.7638  -0.7623  -0.7353  -0.7349  -0.7316  -0.7306  -0.7306  -0.7261
    -0.7210  -0.7210  -0.7166  -0.7160  -0.6848  -0.6836  -0.6679  -0.6638
    -0.6609  -0.6605  -0.6596  -0.6487  -0.6400  -0.3631  -0.3550  -0.3024
    -0.2866  -0.2580  -0.0981  -0.0336  -0.0316   0.0023   0.2849   0.2900
     0.6117   0.6253   0.7148   0.7162   0.7544   0.7595   0.8962   0.9081
     1.0245   1.0261   1.1141   1.7113   1.7298   1.7303   1.7685   1.7739
     1.8074   1.8291   1.8964   1.9084   2.1055   2.1093   2.3401   2.4166
     2.4307   2.4385   2.8089   2.8273   2.8916   2.8946   2.8989   2.9024
     3.0513   3.0521   3.0784   3.1879   3.2048   3.4228   3.4360   3.5611
     3.5861   3.5945   3.8550   3.8657   3.9710   3.9917   3.9919   4.0091
     4.0365   4.1766   4.1813   4.4157   4.4167   4.4917   4.5016   4.5755
     4.6274   4.6314   4.6437   4.6755   4.8464   5.3849   5.4120   5.4467
     5.5411   5.5656   5.6068   5.7289   5.7363   5.7448   5.7489   5.8498
     5.8538   5.9070   5.9097   5.9511   5.9869   6.0596   6.0656   6.1923
     6.2019   6.2177   6.2293   6.2360   6.2424   6.2489   6.2548   6.2634

     the Fermi energy is     0.9754 ev

!    total energy              =   -7425.29620417 Ry
     Harris-Foulkes estimate   =   -7425.29620416 Ry
     estimated scf accuracy    <          7.9E-09 Ry

     The total energy is the sum of the following terms:

     one-electron contribution =  -48717.93763956 Ry
     hartree contribution      =   24912.85513272 Ry
     xc contribution           =   -3604.21145149 Ry
     ewald contribution        =   19984.00057137 Ry
     smearing contrib. (-TS)   =      -0.00281720 Ry

     convergence has been achieved in  26 iterations

     Writing output data file 2108638.save

     init_run     :     96.11s CPU    103.90s WALL (       1 calls)
     electrons    :   6498.32s CPU   6934.73s WALL (       1 calls)

     Called by init_run:
     wfcinit      :     72.28s CPU     79.09s WALL (       1 calls)
     potinit      :      5.71s CPU      6.12s WALL (       1 calls)

     Called by electrons:
     c_bands      :   5480.04s CPU   5835.02s WALL (      27 calls)
     sum_band     :    691.85s CPU    757.65s WALL (      27 calls)
     v_of_rho     :     72.60s CPU     81.85s WALL (      27 calls)
     newd         :    262.40s CPU    267.02s WALL (      27 calls)
     mix_rho      :      2.17s CPU      2.58s WALL (      27 calls)
     vdW_energy   :      8.88s CPU      9.47s WALL (      27 calls)
     vdW_ffts     :     31.88s CPU     36.65s WALL (      54 calls)
     vdW_v        :      9.20s CPU      9.91s WALL (      27 calls)

     Called by c_bands:
     init_us_2    :     11.56s CPU     11.78s WALL (     330 calls)
     cegterg      :   5410.25s CPU   5762.70s WALL (     162 calls)

     Called by *egterg:
     h_psi        :   2116.64s CPU   2432.69s WALL (     907 calls)
     s_psi        :    346.40s CPU    348.27s WALL (     907 calls)
     g_psi        :      4.39s CPU      4.43s WALL (     739 calls)
     cdiaghg      :   1678.18s CPU   1683.53s WALL (     895 calls)

     Called by h_psi:
     add_vuspsi   :    349.75s CPU    351.81s WALL (     907 calls)

     General routines
     calbec       :    498.41s CPU    500.46s WALL (    1069 calls)
     fft          :     74.91s CPU     83.68s WALL (    1782 calls)
     ffts         :      0.88s CPU      1.14s WALL (      54 calls)
     fftw         :   1467.38s CPU   1785.99s WALL (  440414 calls)
     interpolate  :      2.66s CPU      3.30s WALL (      54 calls)
     davcio       :      0.00s CPU      0.15s WALL (       6 calls)

     Parallel routines
     fft_scatter  :    982.11s CPU   1201.93s WALL (  442250 calls)

     PWSCF        :     1h50m CPU        1h57m WALL


   This run was terminated on:   7:36:51  25Jun2015            

=------------------------------------------------------------------------------=
   JOB DONE.
=------------------------------------------------------------------------------=
