Setting SGE environment for SCC

     Program PWSCF v.5.1.2 starts on 24Jun2015 at 19: 9:47 

     This program is part of the open-source Quantum ESPRESSO suite
     for quantum simulation of materials; please cite
         "P. Giannozzi et al., J. Phys.:Condens. Matter 21 395502 (2009);
          URL http://www.quantum-espresso.org", 
     in publications or presentations arising from this work. More details at
     http://www.quantum-espresso.org/quote

     Parallel version (MPI), running on    32 processors
     R & G space division:  proc/nbgrp/npool/nimage =      32
     Reading input from top.O1.Au62.d.3.4.phi.25.psi.0.in
Warning: card &IONS ignored
Warning: card / ignored
Warning: card &CELL ignored
Warning: card / ignored

     Current dimensions of program PWSCF are:
     Max number of different atomic species (ntypx) = 10
     Max number of k-points (npk) =  40000
     Max angular momentum in pseudopotentials (lmaxx) =  3

     IMPORTANT: XC functional enforced from input :
     Exchange-correlation      = VDW-DF ( 1  4  4  0 1 0)
     Any further DFT definition will be discarded
     Please, verify this is what you really want


     Subspace diagonalization in iterative solution of the eigenvalue problem:
     a serial algorithm will be used


     Parallelization info
     --------------------
     sticks:   dense  smooth     PW     G-vecs:    dense   smooth      PW
     Min         578     289     74               118518    41891    5486
     Max         579     290     75               118533    41932    5497
     Sum       18505    9265   2385              3792731  1341081  175711


     Title: 
     top.O1.Au62.d.3.4.phi.25.psi.0                                             


     bravais-lattice index     =            8
     lattice parameter (alat)  =      24.1233  a.u.
     unit-cell volume          =   28076.2361 (a.u.)^3
     number of atoms/cell      =           75
     number of atomic types    =            3
     number of electrons       =       800.00
     number of Kohn-Sham states=          480
     kinetic-energy cutoff     =      50.0000  Ry
     charge density cutoff     =     400.0000  Ry
     convergence threshold     =      1.0E-08
     mixing beta               =       0.7000
     number of iterations used =            8  plain     mixing
     Exchange-correlation      = VDW-DF ( 1  4  4  0 1 0)

     celldm(1)=  24.123277  celldm(2)=   1.000000  celldm(3)=   2.000000
     celldm(4)=   0.000000  celldm(5)=   0.000000  celldm(6)=   0.000000

     crystal axes: (cart. coord. in units of alat)
               a(1) = (   1.000000   0.000000   0.000000 )  
               a(2) = (   0.000000   1.000000   0.000000 )  
               a(3) = (   0.000000   0.000000   2.000000 )  

     reciprocal axes: (cart. coord. in units 2 pi/alat)
               b(1) = (  1.000000  0.000000  0.000000 )  
               b(2) = (  0.000000  1.000000  0.000000 )  
               b(3) = (  0.000000  0.000000  0.500000 )  


     PseudoPot. # 1 for Au read from file:
     /home/scc/andrejb/qe/pseudo/Au.pbe-nd-van.UPF
     MD5 check sum: 458681b50f36d87ef23c61b04bba420a
     Pseudo is Ultrasoft + core correction, Zval = 11.0
     Generated by new atomic code, or converted to UPF format
     Using radial grid of  985 points,  3 beta functions with: 
                l(1) =   1
                l(2) =   2
                l(3) =   2
     Q(r) pseudized with  8 coefficients,  rinner =    1.100   1.100   1.100
                                                       1.100   1.100

     PseudoPot. # 2 for H  read from file:
     /home/scc/andrejb/qe/pseudo/H.pbe-van_ak.UPF
     MD5 check sum: 403db7282739603aa925980fa9b8608d
     Pseudo is Ultrasoft, Zval =  1.0
     Generated by new atomic code, or converted to UPF format
     Using radial grid of  615 points,  1 beta functions with: 
                l(1) =   0
     Q(r) pseudized with  8 coefficients,  rinner =    0.800

     PseudoPot. # 3 for O  read from file:
     /home/scc/andrejb/qe/pseudo/O.pbe-van_ak.UPF
     MD5 check sum: 4b8c549914a63cae506c6ff22b5af4fe
     Pseudo is Ultrasoft, Zval =  6.0
     Generated by new atomic code, or converted to UPF format
     Using radial grid of  737 points,  4 beta functions with: 
                l(1) =   0
                l(2) =   0
                l(3) =   1
                l(4) =   1
     Q(r) pseudized with  8 coefficients,  rinner =    0.800   0.800   0.800


     vdW kernel table read from file vdW_kernel_table
     MD5 check sum: 48e77a2e26edf626eeb0eaa751ad5cac

     atomic species   valence    mass     pseudopotential
        Au            11.00   196.96657     Au( 1.00)
        H              1.00     1.01000     H ( 1.00)
        O              6.00    16.00000     O ( 1.00)

     No symmetry found



   Cartesian axes

     site n.     atom                  positions (alat units)
         1           O   tau(   1) = (   0.4998324   0.3332216   0.7656616  )
         2           H   tau(   2) = (   0.4742046   0.2775985   0.8111555  )
         3           H   tau(   3) = (   0.5246755   0.3871743   0.8135193  )
         4           Au  tau(   4) = (   0.0000000   0.0000000   0.0000000  )
         5           Au  tau(   5) = (   0.3332217   0.0000000   0.0000000  )
         6           Au  tau(   6) = (   0.6664435   0.0000000   0.0000000  )
         7           Au  tau(   7) = (   0.1666109   0.1666109   0.0000000  )
         8           Au  tau(   8) = (   0.4998326   0.1666109   0.0000000  )
         9           Au  tau(   9) = (   0.8330542   0.1666109   0.0000000  )
        10           Au  tau(  10) = (   0.0000000   0.3332217   0.0000000  )
        11           Au  tau(  11) = (   0.3332217   0.3332217   0.0000000  )
        12           Au  tau(  12) = (   0.6664435   0.3332217   0.0000000  )
        13           Au  tau(  13) = (   0.1666109   0.4998326   0.0000000  )
        14           Au  tau(  14) = (   0.4998326   0.4998326   0.0000000  )
        15           Au  tau(  15) = (   0.8330542   0.4998326   0.0000000  )
        16           Au  tau(  16) = (   0.0000000   0.6664435   0.0000000  )
        17           Au  tau(  17) = (   0.3332217   0.6664435   0.0000000  )
        18           Au  tau(  18) = (   0.6664435   0.6664435   0.0000000  )
        19           Au  tau(  19) = (   0.1666109   0.8330542   0.0000000  )
        20           Au  tau(  20) = (   0.4998326   0.8330542   0.0000000  )
        21           Au  tau(  21) = (   0.8330542   0.8330542   0.0000000  )
        22           Au  tau(  22) = (   0.1666109   0.0000000   0.1666109  )
        23           Au  tau(  23) = (   0.4998326   0.0000000   0.1666109  )
        24           Au  tau(  24) = (   0.8330542   0.0000000   0.1666109  )
        25           Au  tau(  25) = (   0.0000000   0.1666109   0.1666109  )
        26           Au  tau(  26) = (   0.3332217   0.1666109   0.1666109  )
        27           Au  tau(  27) = (   0.6664435   0.1666109   0.1666109  )
        28           Au  tau(  28) = (   0.1666109   0.3332217   0.1666109  )
        29           Au  tau(  29) = (   0.4998326   0.3332217   0.1666109  )
        30           Au  tau(  30) = (   0.8330542   0.3332217   0.1666109  )
        31           Au  tau(  31) = (   0.0000000   0.4998326   0.1666109  )
        32           Au  tau(  32) = (   0.3332217   0.4998326   0.1666109  )
        33           Au  tau(  33) = (   0.6664435   0.4998326   0.1666109  )
        34           Au  tau(  34) = (   0.1666109   0.6664435   0.1666109  )
        35           Au  tau(  35) = (   0.4998326   0.6664435   0.1666109  )
        36           Au  tau(  36) = (   0.8330542   0.6664435   0.1666109  )
        37           Au  tau(  37) = (   0.0000000   0.8330542   0.1666109  )
        38           Au  tau(  38) = (   0.3332217   0.8330542   0.1666109  )
        39           Au  tau(  39) = (   0.6664435   0.8330542   0.1666109  )
        40           Au  tau(  40) = (  -0.0000182  -0.0000182   0.3335478  )
        41           Au  tau(  41) = (   0.3332215  -0.0000181   0.3335472  )
        42           Au  tau(  42) = (   0.6664447  -0.0000183   0.3335481  )
        43           Au  tau(  43) = (  -0.0000181   0.3332215   0.3335472  )
        44           Au  tau(  44) = (   0.3332215   0.3332215   0.3335468  )
        45           Au  tau(  45) = (   0.6664445   0.3332215   0.3335478  )
        46           Au  tau(  46) = (  -0.0000183   0.6664447   0.3335481  )
        47           Au  tau(  47) = (   0.3332215   0.6664445   0.3335478  )
        48           Au  tau(  48) = (   0.6664446   0.6664446   0.3335486  )
        49           Au  tau(  49) = (   0.1666097   0.1666097   0.3335483  )
        50           Au  tau(  50) = (   0.4998320   0.1666098   0.3335477  )
        51           Au  tau(  51) = (   0.8330732   0.1666096   0.3335481  )
        52           Au  tau(  52) = (   0.1666098   0.4998320   0.3335477  )
        53           Au  tau(  53) = (   0.4998321   0.4998321   0.3335470  )
        54           Au  tau(  54) = (   0.8330730   0.4998322   0.3335474  )
        55           Au  tau(  55) = (   0.1666096   0.8330732   0.3335481  )
        56           Au  tau(  56) = (   0.4998322   0.8330730   0.3335474  )
        57           Au  tau(  57) = (   0.8330731   0.8330731   0.3335478  )
        58           Au  tau(  58) = (   0.1666104  -0.0000111   0.4993095  )
        59           Au  tau(  59) = (   0.4998323  -0.0000112   0.4993099  )
        60           Au  tau(  60) = (   0.8330661  -0.0000111   0.4993009  )
        61           Au  tau(  61) = (  -0.0000111   0.1666104   0.4993095  )
        62           Au  tau(  62) = (   0.3332214   0.1666106   0.4993185  )
        63           Au  tau(  63) = (   0.6664437   0.1666106   0.4993187  )
        64           Au  tau(  64) = (   0.1666106   0.3332214   0.4993185  )
        65           Au  tau(  65) = (   0.4998324   0.3332216   0.4993185  )
        66           Au  tau(  66) = (   0.8330659   0.3332215   0.4993103  )
        67           Au  tau(  67) = (  -0.0000112   0.4998323   0.4993099  )
        68           Au  tau(  68) = (   0.3332216   0.4998324   0.4993185  )
        69           Au  tau(  69) = (   0.6664436   0.4998325   0.4993187  )
        70           Au  tau(  70) = (   0.1666106   0.6664437   0.4993187  )
        71           Au  tau(  71) = (   0.4998325   0.6664436   0.4993187  )
        72           Au  tau(  72) = (   0.8330658   0.6664438   0.4993102  )
        73           Au  tau(  73) = (  -0.0000111   0.8330661   0.4993009  )
        74           Au  tau(  74) = (   0.3332215   0.8330659   0.4993103  )
        75           Au  tau(  75) = (   0.6664438   0.8330658   0.4993102  )

     number of k points=     6  Marzari-Vanderbilt smearing, width (Ry)=  0.0200
                       cart. coord. in units 2pi/alat
        k(    1) = (   0.2500000   0.2500000   0.0833333), wk =   0.3333333
        k(    2) = (   0.2500000   0.2500000  -0.2500000), wk =   0.3333333
        k(    3) = (  -0.2500000  -0.2500000   0.0833333), wk =   0.3333333
        k(    4) = (  -0.2500000   0.2500000  -0.0833333), wk =   0.3333333
        k(    5) = (   0.2500000  -0.2500000  -0.0833333), wk =   0.3333333
        k(    6) = (  -0.2500000   0.2500000   0.2500000), wk =   0.3333333

     Dense  grid:  3792731 G-vectors     FFT dimensions: ( 160, 160, 320)

     Smooth grid:  1341081 G-vectors     FFT dimensions: ( 120, 120, 225)

     Largest allocated arrays     est. size (Mb)     dimensions
        Kohn-Sham Wavefunctions        38.58 Mb     (    5267,  480)
        NL pseudopotentials            76.03 Mb     (    5267,  946)
        Each V/rho on FFT grid          3.91 Mb     (  256000)
        Each G-vector array             0.90 Mb     (  118520)
        G-vector shells                 0.08 Mb     (   10286)
     Largest temporary arrays     est. size (Mb)     dimensions
        Auxiliary wavefunctions       154.31 Mb     (    5267, 1920)
        Each subspace H/S matrix       56.25 Mb     (    1920, 1920)
        Each <psi_i|beta_j> matrix      6.93 Mb     (     946,  480)
        Arrays for rho mixing          31.25 Mb     (  256000,    8)

     Initial potential from superposition of free atoms
     Check: negative starting charge=   -1.944982

     starting charge  799.16392, renormalised to  800.00000

     negative rho (up, down):  1.947E+00 0.000E+00


     ************************************************************************
     *
     * You are using vdW-DF for exchange-correlation in this calculation.
     * Please cite the following three references that made this development
     * possible:
     *
     *   M. Dion, H. Rydberg, E. Schroder, D. C. Langreth, and
     *   B. I. Lundqvist, Phys. Rev. Lett. 92, 246401 (2004).
     *
     *   T. Thonhauser, V. R. Cooper, S. Li, A. Puzder, P. Hyldgaard, and
     *   D. C. Langreth, Phys. Rev. B 76, 125112 (2007).
     *
     *   G. Roman-Perez and J. M. Soler, Phys. Rev. Lett. 103, 096102 (2009).
     *
     *
     * If you are using vdW-DF2, please also cite:
     *
     *   K. Lee, E. D. Murray, L. Kong, B. I. Lundqvist, and
     *   D. C. Langreth, Phys. Rev. B 82, 081101(R) (2010).
     *
     *
     * If you are calculating the stress with vdW-DF, please also cite:
     *
     *   R. Sabatini, E. Kucukbenli, B. Kolb, T. Thonhauser, and
     *   S. de Gironcoli, J. Phys.: Condens. Matter 24, 424209 (2012).
     *
     ************************************************************************

     Carrying out vdW-DF run using the following parameters:

     Nqs =      20    Nr_points =    1024   r_max =   100.000
     q_mesh =
               0.00001000     0.04494208     0.09755937     0.15916263
               0.23128650     0.31572767     0.41458969     0.53033537
               0.66584808     0.82450364     1.01025438     1.22772762
               1.48234092     1.78043706     2.12944203     2.53805004
               3.01644009     3.57652955     4.23227104     5.00000000

     Gradients computed in reciprocal space

     ************************************************************************


     Starting wfc are  654 randomized atomic wfcs

     total cpu time spent up to now is      110.3 secs

     Self-consistent Calculation

     iteration #  1     ecut=    50.00 Ry     beta=0.70
     Davidson diagonalization with overlap
     ethr =  1.00E-02,  avg # of iterations =  3.0

     Threshold (ethr) on eigenvalues was too large:
     Diagonalizing with lowered threshold

     Davidson diagonalization with overlap
     ethr =  4.29E-04,  avg # of iterations =  2.5

     negative rho (up, down):  1.947E+00 0.000E+00

     total cpu time spent up to now is      487.1 secs

     total energy              =   -7423.00448023 Ry
     Harris-Foulkes estimate   =   -7426.09290539 Ry
     estimated scf accuracy    <       3.81026717 Ry

     iteration #  2     ecut=    50.00 Ry     beta=0.70
     Davidson diagonalization with overlap
     ethr =  4.76E-04,  avg # of iterations = 11.2

     negative rho (up, down):  1.941E+00 0.000E+00

     total cpu time spent up to now is     1180.2 secs

     total energy              =   -7414.60190115 Ry
     Harris-Foulkes estimate   =   -7432.76965097 Ry
     estimated scf accuracy    <      96.04301924 Ry

     iteration #  3     ecut=    50.00 Ry     beta=0.70
     Davidson diagonalization with overlap
     ethr =  4.76E-04,  avg # of iterations =  6.2

     negative rho (up, down):  1.951E+00 0.000E+00

     total cpu time spent up to now is     1600.5 secs

     total energy              =   -7424.06791960 Ry
     Harris-Foulkes estimate   =   -7425.88551857 Ry
     estimated scf accuracy    <       7.76448483 Ry

     iteration #  4     ecut=    50.00 Ry     beta=0.70
     Davidson diagonalization with overlap
     ethr =  4.76E-04,  avg # of iterations =  5.2

     negative rho (up, down):  1.955E+00 0.000E+00

     total cpu time spent up to now is     1830.9 secs

     total energy              =   -7424.85967700 Ry
     Harris-Foulkes estimate   =   -7425.64003848 Ry
     estimated scf accuracy    <       4.03197953 Ry

     iteration #  5     ecut=    50.00 Ry     beta=0.70
     Davidson diagonalization with overlap
     ethr =  4.76E-04,  avg # of iterations =  6.0

     negative rho (up, down):  1.962E+00 0.000E+00

     total cpu time spent up to now is     2070.1 secs

     total energy              =   -7425.05479513 Ry
     Harris-Foulkes estimate   =   -7425.60380844 Ry
     estimated scf accuracy    <       4.36936221 Ry

     iteration #  6     ecut=    50.00 Ry     beta=0.70
     Davidson diagonalization with overlap
     ethr =  4.76E-04,  avg # of iterations =  2.0

     negative rho (up, down):  1.967E+00 0.000E+00

     total cpu time spent up to now is     2251.7 secs

     total energy              =   -7425.28628531 Ry
     Harris-Foulkes estimate   =   -7425.33069484 Ry
     estimated scf accuracy    <       0.14745124 Ry

     iteration #  7     ecut=    50.00 Ry     beta=0.70
     Davidson diagonalization with overlap
     ethr =  1.84E-05,  avg # of iterations =  7.7

     negative rho (up, down):  1.969E+00 0.000E+00

     total cpu time spent up to now is     2542.8 secs

     total energy              =   -7425.28652301 Ry
     Harris-Foulkes estimate   =   -7425.32384526 Ry
     estimated scf accuracy    <       0.17083573 Ry

     iteration #  8     ecut=    50.00 Ry     beta=0.70
     Davidson diagonalization with overlap
     ethr =  1.84E-05,  avg # of iterations =  3.2

     negative rho (up, down):  1.970E+00 0.000E+00

     total cpu time spent up to now is     2747.0 secs

     total energy              =   -7425.29092622 Ry
     Harris-Foulkes estimate   =   -7425.31021661 Ry
     estimated scf accuracy    <       0.08376829 Ry

     iteration #  9     ecut=    50.00 Ry     beta=0.70
     Davidson diagonalization with overlap
     ethr =  1.05E-05,  avg # of iterations =  5.3

     negative rho (up, down):  1.972E+00 0.000E+00

     total cpu time spent up to now is     2972.4 secs

     total energy              =   -7425.29223491 Ry
     Harris-Foulkes estimate   =   -7425.30423049 Ry
     estimated scf accuracy    <       0.04704206 Ry

     iteration # 10     ecut=    50.00 Ry     beta=0.70
     Davidson diagonalization with overlap
     ethr =  5.88E-06,  avg # of iterations =  6.2

     negative rho (up, down):  1.972E+00 0.000E+00

     total cpu time spent up to now is     3209.7 secs

     total energy              =   -7425.29459366 Ry
     Harris-Foulkes estimate   =   -7425.29778285 Ry
     estimated scf accuracy    <       0.00967135 Ry

     iteration # 11     ecut=    50.00 Ry     beta=0.70
     Davidson diagonalization with overlap
     ethr =  1.21E-06,  avg # of iterations =  8.3

     negative rho (up, down):  1.974E+00 0.000E+00

     total cpu time spent up to now is     3472.2 secs

     total energy              =   -7425.29497895 Ry
     Harris-Foulkes estimate   =   -7425.29621601 Ry
     estimated scf accuracy    <       0.00450346 Ry

     iteration # 12     ecut=    50.00 Ry     beta=0.70
     Davidson diagonalization with overlap
     ethr =  5.63E-07,  avg # of iterations =  4.0

     negative rho (up, down):  1.975E+00 0.000E+00

     total cpu time spent up to now is     3678.0 secs

     total energy              =   -7425.29428949 Ry
     Harris-Foulkes estimate   =   -7425.29542885 Ry
     estimated scf accuracy    <       0.00158840 Ry

     iteration # 13     ecut=    50.00 Ry     beta=0.70
     Davidson diagonalization with overlap
     ethr =  1.99E-07,  avg # of iterations =  8.8

     negative rho (up, down):  1.974E+00 0.000E+00

     total cpu time spent up to now is     4079.4 secs

     total energy              =   -7425.29371857 Ry
     Harris-Foulkes estimate   =   -7425.29586483 Ry
     estimated scf accuracy    <       0.00902156 Ry

     iteration # 14     ecut=    50.00 Ry     beta=0.70
     Davidson diagonalization with overlap
     ethr =  1.99E-07,  avg # of iterations =  3.0

     negative rho (up, down):  1.974E+00 0.000E+00

     total cpu time spent up to now is     4333.3 secs

     total energy              =   -7425.29460009 Ry
     Harris-Foulkes estimate   =   -7425.29494282 Ry
     estimated scf accuracy    <       0.00151564 Ry

     iteration # 15     ecut=    50.00 Ry     beta=0.70
     Davidson diagonalization with overlap
     ethr =  1.89E-07,  avg # of iterations =  2.0

     negative rho (up, down):  1.974E+00 0.000E+00

     total cpu time spent up to now is     4521.9 secs

     total energy              =   -7425.29468090 Ry
     Harris-Foulkes estimate   =   -7425.29488046 Ry
     estimated scf accuracy    <       0.00101759 Ry

     iteration # 16     ecut=    50.00 Ry     beta=0.70
     Davidson diagonalization with overlap
     ethr =  1.27E-07,  avg # of iterations =  1.0

     negative rho (up, down):  1.974E+00 0.000E+00

     total cpu time spent up to now is     4691.8 secs

     total energy              =   -7425.29472910 Ry
     Harris-Foulkes estimate   =   -7425.29488904 Ry
     estimated scf accuracy    <       0.00132431 Ry

     iteration # 17     ecut=    50.00 Ry     beta=0.70
     Davidson diagonalization with overlap
     ethr =  1.27E-07,  avg # of iterations =  1.0

     negative rho (up, down):  1.974E+00 0.000E+00

     total cpu time spent up to now is     4860.3 secs

     total energy              =   -7425.29480199 Ry
     Harris-Foulkes estimate   =   -7425.29482050 Ry
     estimated scf accuracy    <       0.00005335 Ry

     iteration # 18     ecut=    50.00 Ry     beta=0.70
     Davidson diagonalization with overlap
     ethr =  6.67E-09,  avg # of iterations =  2.0

     negative rho (up, down):  1.974E+00 0.000E+00

     total cpu time spent up to now is     5046.9 secs

     total energy              =   -7425.29480974 Ry
     Harris-Foulkes estimate   =   -7425.29481509 Ry
     estimated scf accuracy    <       0.00001974 Ry

     iteration # 19     ecut=    50.00 Ry     beta=0.70
     Davidson diagonalization with overlap
     ethr =  2.47E-09,  avg # of iterations =  3.0

     negative rho (up, down):  1.974E+00 0.000E+00

     total cpu time spent up to now is     5237.9 secs

     total energy              =   -7425.29481061 Ry
     Harris-Foulkes estimate   =   -7425.29481538 Ry
     estimated scf accuracy    <       0.00002427 Ry

     iteration # 20     ecut=    50.00 Ry     beta=0.70
     Davidson diagonalization with overlap
     ethr =  2.47E-09,  avg # of iterations =  2.0

     negative rho (up, down):  1.974E+00 0.000E+00

     total cpu time spent up to now is     5421.3 secs

     total energy              =   -7425.29481265 Ry
     Harris-Foulkes estimate   =   -7425.29481403 Ry
     estimated scf accuracy    <       0.00000544 Ry

     iteration # 21     ecut=    50.00 Ry     beta=0.70
     Davidson diagonalization with overlap
     ethr =  6.80E-10,  avg # of iterations =  2.0

     negative rho (up, down):  1.974E+00 0.000E+00

     total cpu time spent up to now is     5605.8 secs

     total energy              =   -7425.29481350 Ry
     Harris-Foulkes estimate   =   -7425.29481374 Ry
     estimated scf accuracy    <       0.00000162 Ry

     iteration # 22     ecut=    50.00 Ry     beta=0.70
     Davidson diagonalization with overlap
     ethr =  2.03E-10,  avg # of iterations =  3.0

     negative rho (up, down):  1.974E+00 0.000E+00

     total cpu time spent up to now is     5808.5 secs

     total energy              =   -7425.29481376 Ry
     Harris-Foulkes estimate   =   -7425.29481387 Ry
     estimated scf accuracy    <       0.00000057 Ry

     iteration # 23     ecut=    50.00 Ry     beta=0.70
     Davidson diagonalization with overlap
     ethr =  7.06E-11,  avg # of iterations =  3.0

     negative rho (up, down):  1.974E+00 0.000E+00

     total cpu time spent up to now is     6015.5 secs

     total energy              =   -7425.29481384 Ry
     Harris-Foulkes estimate   =   -7425.29481388 Ry
     estimated scf accuracy    <       0.00000015 Ry

     iteration # 24     ecut=    50.00 Ry     beta=0.70
     Davidson diagonalization with overlap
     ethr =  1.87E-11,  avg # of iterations =  2.0

     negative rho (up, down):  1.974E+00 0.000E+00

     total cpu time spent up to now is     6222.3 secs

     total energy              =   -7425.29481390 Ry
     Harris-Foulkes estimate   =   -7425.29481390 Ry
     estimated scf accuracy    <       0.00000019 Ry

     iteration # 25     ecut=    50.00 Ry     beta=0.70
     Davidson diagonalization with overlap
     ethr =  1.87E-11,  avg # of iterations =  2.0

     negative rho (up, down):  1.974E+00 0.000E+00

     total cpu time spent up to now is     6409.9 secs

     total energy              =   -7425.29481392 Ry
     Harris-Foulkes estimate   =   -7425.29481393 Ry
     estimated scf accuracy    <       0.00000011 Ry

     iteration # 26     ecut=    50.00 Ry     beta=0.70
     Davidson diagonalization with overlap
     ethr =  1.35E-11,  avg # of iterations =  2.0

     negative rho (up, down):  1.974E+00 0.000E+00

     total cpu time spent up to now is     6596.9 secs

     total energy              =   -7425.29481394 Ry
     Harris-Foulkes estimate   =   -7425.29481395 Ry
     estimated scf accuracy    <       0.00000018 Ry

     iteration # 27     ecut=    50.00 Ry     beta=0.70
     Davidson diagonalization with overlap
     ethr =  1.35E-11,  avg # of iterations =  1.0

     negative rho (up, down):  1.974E+00 0.000E+00

     total cpu time spent up to now is     6776.5 secs

     total energy              =   -7425.29481396 Ry
     Harris-Foulkes estimate   =   -7425.29481395 Ry
     estimated scf accuracy    <       0.00000002 Ry

     iteration # 28     ecut=    50.00 Ry     beta=0.70
     Davidson diagonalization with overlap
     ethr =  3.04E-12,  avg # of iterations =  3.0

     negative rho (up, down):  1.974E+00 0.000E+00

     total cpu time spent up to now is     6980.3 secs

     total energy              =   -7425.29481396 Ry
     Harris-Foulkes estimate   =   -7425.29481396 Ry
     estimated scf accuracy    <       0.00000001 Ry

     iteration # 29     ecut=    50.00 Ry     beta=0.70
     Davidson diagonalization with overlap
     ethr =  1.57E-12,  avg # of iterations =  2.0

     negative rho (up, down):  1.974E+00 0.000E+00

     total cpu time spent up to now is     7167.9 secs

     End of self-consistent calculation

          k = 0.2500 0.2500 0.0833 (167653 PWs)   bands (ev):

   -19.6123  -7.4212  -6.7290  -6.2008  -6.1998  -5.7707  -5.3622  -5.2689
    -5.2679  -5.0724  -5.0724  -4.9554  -4.9545  -4.8759  -4.8533  -4.7800
    -4.6949  -4.6915  -4.6526  -4.6525  -4.4916  -4.4746  -4.4740  -4.4730
    -4.4669  -4.4109  -4.4109  -4.3993  -4.3985  -4.3619  -4.3498  -4.3493
    -4.3071  -4.3071  -4.2735  -4.2724  -4.2209  -4.2200  -4.2102  -4.2082
    -4.2031  -4.1899  -4.1898  -4.1487  -4.1306  -4.1301  -4.1237  -4.1232
    -4.0920  -4.0423  -4.0266  -4.0257  -4.0238  -4.0225  -4.0146  -4.0090
    -4.0085  -4.0084  -3.9442  -3.9440  -3.8948  -3.8938  -3.8815  -3.8555
    -3.8549  -3.8376  -3.8327  -3.8321  -3.8278  -3.8246  -3.7770  -3.7756
    -3.7628  -3.7620  -3.7263  -3.6577  -3.6541  -3.6515  -3.6464  -3.6128
    -3.6037  -3.5908  -3.5603  -3.5592  -3.5320  -3.5302  -3.5099  -3.5091
    -3.4965  -3.4954  -3.4413  -3.4406  -3.4221  -3.4075  -3.3954  -3.3943
    -3.3938  -3.3927  -3.3657  -3.3652  -3.3291  -3.3282  -3.3065  -3.3061
    -3.2737  -3.2734  -3.2550  -3.2275  -3.2275  -3.1903  -3.1898  -3.1544
    -3.1470  -3.1462  -3.1326  -3.1319  -3.1273  -3.1266  -3.0880  -3.0790
    -3.0376  -3.0375  -3.0296  -3.0204  -3.0194  -3.0173  -2.9938  -2.9936
    -2.9726  -2.9722  -2.9711  -2.9448  -2.9448  -2.9373  -2.9344  -2.9342
    -2.8987  -2.8937  -2.8590  -2.8580  -2.8577  -2.8547  -2.8547  -2.7755
    -2.7655  -2.7617  -2.7604  -2.7598  -2.7592  -2.7545  -2.7543  -2.7543
    -2.7532  -2.7443  -2.7366  -2.7197  -2.7169  -2.7168  -2.7148  -2.7015
    -2.6968  -2.6585  -2.6577  -2.6577  -2.6541  -2.6526  -2.6354  -2.6347
    -2.6261  -2.6261  -2.6237  -2.5645  -2.5643  -2.5589  -2.5587  -2.5540
    -2.5533  -2.5255  -2.4661  -2.4653  -2.4647  -2.4632  -2.4516  -2.4498
    -2.4443  -2.4338  -2.4334  -2.3973  -2.3959  -2.3882  -2.3871  -2.3867
    -2.3863  -2.3474  -2.3465  -2.3372  -2.3370  -2.3356  -2.3350  -2.2931
    -2.2765  -2.2722  -2.2186  -2.2180  -2.1999  -2.1986  -2.1932  -2.1925
    -2.1449  -2.1433  -2.1204  -2.1044  -2.0903  -2.0891  -2.0888  -2.0672
    -2.0667  -2.0572  -2.0402  -1.9996  -1.9985  -1.9862  -1.9861  -1.9854
    -1.9742  -1.9741  -1.9588  -1.9585  -1.9564  -1.9539  -1.9503  -1.9494
    -1.9475  -1.9366  -1.9360  -1.9187  -1.9181  -1.9162  -1.9103  -1.9071
    -1.9065  -1.8833  -1.8827  -1.8715  -1.8697  -1.8658  -1.8634  -1.8260
    -1.7931  -1.7915  -1.7569  -1.7401  -1.7394  -1.7318  -1.7289  -1.7072
    -1.7051  -1.6968  -1.6905  -1.6895  -1.6884  -1.6871  -1.6855  -1.6532
    -1.6526  -1.6519  -1.6192  -1.6065  -1.6052  -1.5665  -1.5650  -1.5191
    -1.5186  -1.5064  -1.4841  -1.4784  -1.4769  -1.4596  -1.4579  -1.4413
    -1.4402  -1.4363  -1.4359  -1.4343  -1.4334  -1.4319  -1.4295  -1.4107
    -1.4098  -1.3989  -1.3827  -1.3635  -1.3631  -1.3375  -1.3374  -1.3346
    -1.3338  -1.3311  -1.3268  -1.3061  -1.3054  -1.2915  -1.2888  -1.2771
    -1.2680  -1.2546  -1.2532  -1.2235  -1.2228  -1.2150  -1.2142  -1.1798
    -1.1787  -1.1713  -1.1701  -1.1624  -1.1613  -1.1407  -1.1400  -1.1285
    -1.1219  -1.1213  -1.1090  -1.1084  -1.1074  -1.1056  -1.0931  -1.0827
    -1.0818  -1.0747  -1.0743  -1.0624  -1.0578  -1.0564  -1.0510  -1.0119
    -1.0095  -1.0035  -1.0028  -1.0024  -0.9999  -0.9623  -0.9464  -0.9451
    -0.9449  -0.9439  -0.9396  -0.9387  -0.9350  -0.9208  -0.9204  -0.8839
    -0.8819  -0.8761  -0.8757  -0.8532  -0.8527  -0.8431  -0.8134  -0.8057
    -0.7787  -0.7778  -0.7503  -0.7500  -0.7470  -0.7462  -0.7455  -0.7417
    -0.7375  -0.7360  -0.7316  -0.7312  -0.6996  -0.6989  -0.6821  -0.6795
    -0.6759  -0.6757  -0.6741  -0.6708  -0.6551  -0.3773  -0.3706  -0.3154
    -0.3080  -0.2736  -0.1132  -0.0483  -0.0472  -0.0153   0.2708   0.2726
     0.5989   0.6055   0.7002   0.7005   0.7404   0.7429   0.8834   0.8881
     1.0094   1.0107   1.0977   1.6960   1.7146   1.7152   1.7549   1.7587
     1.7978   1.8098   1.8832   1.8879   2.0914   2.0929   2.3256   2.4041
     2.4113   2.4231   2.7984   2.8089   2.8769   2.8791   2.8843   2.8860
     3.0363   3.0372   3.0730   3.1768   3.1836   3.4079   3.4182   3.5465
     3.5727   3.5762   3.8429   3.8476   3.9551   3.9771   3.9771   4.0112
     4.0347   4.1628   4.1655   4.4006   4.4020   4.4796   4.4888   4.5999
     4.6134   4.6198   4.6334   4.6470   4.8086   5.3997   5.4104   5.4402
     5.5390   5.5464   5.6001   5.6897   5.7238   5.7276   5.7418   5.8379
     5.8382   5.8935   5.8946   5.9366   5.9816   6.0402   6.0824   6.1617
     6.1803   6.1983   6.2054   6.2197   6.2320   6.2364   6.2446   6.2472

          k = 0.2500 0.2500-0.2500 (167588 PWs)   bands (ev):

   -19.6123  -7.4212  -6.7290  -6.2008  -6.1998  -5.7707  -5.3622  -5.2689
    -5.2679  -5.0724  -5.0724  -4.9554  -4.9545  -4.8759  -4.8533  -4.7800
    -4.6949  -4.6915  -4.6526  -4.6525  -4.4916  -4.4746  -4.4740  -4.4730
    -4.4669  -4.4109  -4.4109  -4.3993  -4.3985  -4.3619  -4.3498  -4.3493
    -4.3071  -4.3071  -4.2735  -4.2724  -4.2209  -4.2200  -4.2102  -4.2082
    -4.2031  -4.1899  -4.1899  -4.1487  -4.1306  -4.1301  -4.1237  -4.1232
    -4.0920  -4.0423  -4.0266  -4.0257  -4.0238  -4.0225  -4.0146  -4.0090
    -4.0085  -4.0084  -3.9442  -3.9440  -3.8948  -3.8938  -3.8815  -3.8555
    -3.8549  -3.8375  -3.8327  -3.8320  -3.8278  -3.8246  -3.7770  -3.7756
    -3.7628  -3.7620  -3.7263  -3.6577  -3.6541  -3.6515  -3.6464  -3.6128
    -3.6037  -3.5908  -3.5603  -3.5592  -3.5320  -3.5302  -3.5099  -3.5091
    -3.4965  -3.4954  -3.4413  -3.4406  -3.4221  -3.4075  -3.3954  -3.3943
    -3.3938  -3.3927  -3.3657  -3.3652  -3.3291  -3.3281  -3.3065  -3.3061
    -3.2737  -3.2734  -3.2550  -3.2275  -3.2275  -3.1903  -3.1898  -3.1544
    -3.1470  -3.1462  -3.1326  -3.1319  -3.1272  -3.1266  -3.0880  -3.0790
    -3.0376  -3.0375  -3.0296  -3.0204  -3.0194  -3.0173  -2.9938  -2.9936
    -2.9726  -2.9722  -2.9711  -2.9448  -2.9448  -2.9373  -2.9344  -2.9342
    -2.8987  -2.8937  -2.8590  -2.8580  -2.8577  -2.8547  -2.8547  -2.7755
    -2.7655  -2.7617  -2.7604  -2.7598  -2.7592  -2.7545  -2.7543  -2.7543
    -2.7532  -2.7443  -2.7366  -2.7197  -2.7169  -2.7168  -2.7148  -2.7015
    -2.6968  -2.6585  -2.6577  -2.6577  -2.6541  -2.6526  -2.6354  -2.6347
    -2.6261  -2.6261  -2.6237  -2.5645  -2.5643  -2.5589  -2.5587  -2.5540
    -2.5533  -2.5255  -2.4661  -2.4653  -2.4647  -2.4632  -2.4516  -2.4498
    -2.4443  -2.4338  -2.4334  -2.3973  -2.3959  -2.3882  -2.3871  -2.3867
    -2.3863  -2.3474  -2.3465  -2.3372  -2.3370  -2.3356  -2.3350  -2.2931
    -2.2765  -2.2722  -2.2186  -2.2180  -2.1999  -2.1986  -2.1932  -2.1925
    -2.1449  -2.1433  -2.1204  -2.1044  -2.0903  -2.0891  -2.0888  -2.0672
    -2.0667  -2.0572  -2.0402  -1.9996  -1.9985  -1.9862  -1.9861  -1.9854
    -1.9742  -1.9741  -1.9588  -1.9585  -1.9564  -1.9539  -1.9503  -1.9494
    -1.9475  -1.9366  -1.9360  -1.9187  -1.9181  -1.9162  -1.9104  -1.9071
    -1.9065  -1.8833  -1.8827  -1.8715  -1.8697  -1.8658  -1.8634  -1.8260
    -1.7931  -1.7915  -1.7569  -1.7401  -1.7394  -1.7318  -1.7289  -1.7072
    -1.7051  -1.6968  -1.6905  -1.6895  -1.6884  -1.6871  -1.6855  -1.6532
    -1.6526  -1.6519  -1.6192  -1.6065  -1.6051  -1.5665  -1.5650  -1.5191
    -1.5186  -1.5064  -1.4841  -1.4784  -1.4770  -1.4596  -1.4579  -1.4413
    -1.4402  -1.4363  -1.4359  -1.4343  -1.4334  -1.4319  -1.4295  -1.4107
    -1.4098  -1.3989  -1.3827  -1.3635  -1.3631  -1.3375  -1.3374  -1.3346
    -1.3338  -1.3311  -1.3268  -1.3061  -1.3054  -1.2915  -1.2888  -1.2771
    -1.2680  -1.2546  -1.2532  -1.2235  -1.2228  -1.2150  -1.2142  -1.1798
    -1.1787  -1.1713  -1.1701  -1.1624  -1.1613  -1.1407  -1.1400  -1.1285
    -1.1219  -1.1213  -1.1090  -1.1084  -1.1073  -1.1056  -1.0931  -1.0827
    -1.0818  -1.0747  -1.0743  -1.0624  -1.0578  -1.0564  -1.0510  -1.0119
    -1.0095  -1.0035  -1.0028  -1.0024  -0.9999  -0.9623  -0.9464  -0.9451
    -0.9449  -0.9439  -0.9396  -0.9387  -0.9350  -0.9208  -0.9204  -0.8839
    -0.8819  -0.8761  -0.8757  -0.8532  -0.8527  -0.8432  -0.8134  -0.8057
    -0.7786  -0.7778  -0.7503  -0.7500  -0.7470  -0.7462  -0.7455  -0.7417
    -0.7376  -0.7360  -0.7316  -0.7312  -0.6996  -0.6989  -0.6821  -0.6795
    -0.6759  -0.6757  -0.6741  -0.6708  -0.6551  -0.3773  -0.3706  -0.3154
    -0.3080  -0.2736  -0.1132  -0.0483  -0.0472  -0.0153   0.2708   0.2726
     0.5989   0.6055   0.7002   0.7006   0.7404   0.7429   0.8834   0.8881
     1.0094   1.0107   1.0977   1.6960   1.7146   1.7152   1.7549   1.7587
     1.7978   1.8098   1.8832   1.8879   2.0914   2.0929   2.3256   2.4041
     2.4113   2.4231   2.7984   2.8089   2.8769   2.8791   2.8843   2.8860
     3.0363   3.0372   3.0730   3.1768   3.1836   3.4079   3.4182   3.5465
     3.5727   3.5762   3.8429   3.8476   3.9551   3.9771   3.9771   4.0114
     4.0347   4.1629   4.1655   4.4006   4.4020   4.4795   4.4888   4.5987
     4.6134   4.6196   4.6333   4.6470   4.8078   5.3986   5.4079   5.4156
     5.5390   5.5460   5.6486   5.7058   5.7237   5.7282   5.7397   5.8378
     5.8381   5.8935   5.8946   5.9367   5.9894   6.0425   6.0972   6.1669
     6.1884   6.2048   6.2195   6.2219   6.2318   6.2369   6.2446   6.2480

          k =-0.2500-0.2500 0.0833 (167653 PWs)   bands (ev):

   -19.6123  -7.4212  -6.7290  -6.2008  -6.1998  -5.7707  -5.3622  -5.2689
    -5.2679  -5.0724  -5.0724  -4.9554  -4.9545  -4.8759  -4.8533  -4.7800
    -4.6949  -4.6915  -4.6526  -4.6525  -4.4916  -4.4746  -4.4740  -4.4730
    -4.4669  -4.4109  -4.4109  -4.3993  -4.3985  -4.3619  -4.3498  -4.3493
    -4.3071  -4.3071  -4.2735  -4.2724  -4.2209  -4.2200  -4.2102  -4.2082
    -4.2031  -4.1899  -4.1898  -4.1487  -4.1306  -4.1301  -4.1237  -4.1232
    -4.0920  -4.0423  -4.0266  -4.0257  -4.0238  -4.0225  -4.0146  -4.0090
    -4.0085  -4.0084  -3.9442  -3.9440  -3.8948  -3.8938  -3.8815  -3.8555
    -3.8549  -3.8376  -3.8327  -3.8321  -3.8278  -3.8246  -3.7770  -3.7756
    -3.7628  -3.7620  -3.7263  -3.6577  -3.6541  -3.6515  -3.6464  -3.6128
    -3.6037  -3.5908  -3.5603  -3.5592  -3.5320  -3.5302  -3.5099  -3.5091
    -3.4965  -3.4954  -3.4413  -3.4406  -3.4221  -3.4075  -3.3954  -3.3943
    -3.3938  -3.3927  -3.3657  -3.3652  -3.3291  -3.3282  -3.3065  -3.3061
    -3.2737  -3.2734  -3.2550  -3.2275  -3.2275  -3.1903  -3.1898  -3.1544
    -3.1470  -3.1462  -3.1326  -3.1319  -3.1273  -3.1266  -3.0880  -3.0790
    -3.0376  -3.0375  -3.0296  -3.0204  -3.0194  -3.0173  -2.9938  -2.9936
    -2.9726  -2.9722  -2.9711  -2.9448  -2.9448  -2.9373  -2.9344  -2.9342
    -2.8987  -2.8937  -2.8590  -2.8580  -2.8577  -2.8547  -2.8547  -2.7755
    -2.7655  -2.7617  -2.7604  -2.7598  -2.7592  -2.7545  -2.7543  -2.7543
    -2.7532  -2.7443  -2.7366  -2.7197  -2.7169  -2.7168  -2.7148  -2.7015
    -2.6968  -2.6585  -2.6577  -2.6577  -2.6541  -2.6526  -2.6354  -2.6347
    -2.6261  -2.6261  -2.6237  -2.5645  -2.5643  -2.5589  -2.5587  -2.5540
    -2.5533  -2.5255  -2.4661  -2.4653  -2.4647  -2.4632  -2.4516  -2.4498
    -2.4443  -2.4338  -2.4334  -2.3973  -2.3959  -2.3882  -2.3871  -2.3867
    -2.3863  -2.3474  -2.3465  -2.3372  -2.3370  -2.3356  -2.3350  -2.2931
    -2.2765  -2.2722  -2.2186  -2.2180  -2.1999  -2.1986  -2.1932  -2.1925
    -2.1449  -2.1433  -2.1204  -2.1044  -2.0903  -2.0891  -2.0888  -2.0672
    -2.0667  -2.0572  -2.0402  -1.9996  -1.9985  -1.9862  -1.9861  -1.9854
    -1.9742  -1.9741  -1.9588  -1.9585  -1.9564  -1.9539  -1.9503  -1.9494
    -1.9475  -1.9366  -1.9360  -1.9187  -1.9181  -1.9162  -1.9103  -1.9071
    -1.9065  -1.8833  -1.8827  -1.8715  -1.8697  -1.8658  -1.8634  -1.8260
    -1.7931  -1.7915  -1.7569  -1.7401  -1.7394  -1.7318  -1.7289  -1.7072
    -1.7051  -1.6968  -1.6905  -1.6895  -1.6884  -1.6871  -1.6855  -1.6532
    -1.6526  -1.6519  -1.6192  -1.6065  -1.6052  -1.5665  -1.5650  -1.5191
    -1.5186  -1.5064  -1.4841  -1.4784  -1.4769  -1.4596  -1.4579  -1.4413
    -1.4402  -1.4363  -1.4359  -1.4343  -1.4334  -1.4319  -1.4295  -1.4107
    -1.4098  -1.3989  -1.3827  -1.3635  -1.3631  -1.3375  -1.3374  -1.3346
    -1.3338  -1.3311  -1.3268  -1.3061  -1.3054  -1.2915  -1.2888  -1.2771
    -1.2680  -1.2546  -1.2532  -1.2235  -1.2228  -1.2150  -1.2142  -1.1798
    -1.1787  -1.1713  -1.1701  -1.1624  -1.1613  -1.1407  -1.1400  -1.1285
    -1.1219  -1.1213  -1.1090  -1.1084  -1.1074  -1.1056  -1.0931  -1.0827
    -1.0818  -1.0747  -1.0743  -1.0624  -1.0578  -1.0564  -1.0510  -1.0119
    -1.0095  -1.0035  -1.0028  -1.0024  -0.9999  -0.9623  -0.9464  -0.9451
    -0.9449  -0.9439  -0.9396  -0.9387  -0.9350  -0.9208  -0.9204  -0.8839
    -0.8819  -0.8761  -0.8757  -0.8532  -0.8527  -0.8431  -0.8134  -0.8057
    -0.7787  -0.7778  -0.7503  -0.7500  -0.7470  -0.7462  -0.7455  -0.7417
    -0.7375  -0.7360  -0.7316  -0.7312  -0.6996  -0.6989  -0.6821  -0.6795
    -0.6759  -0.6757  -0.6741  -0.6708  -0.6551  -0.3773  -0.3706  -0.3154
    -0.3080  -0.2736  -0.1132  -0.0483  -0.0472  -0.0153   0.2708   0.2726
     0.5989   0.6055   0.7002   0.7005   0.7404   0.7429   0.8834   0.8881
     1.0094   1.0107   1.0977   1.6960   1.7146   1.7152   1.7549   1.7587
     1.7978   1.8098   1.8832   1.8879   2.0914   2.0929   2.3256   2.4041
     2.4113   2.4231   2.7984   2.8089   2.8769   2.8791   2.8843   2.8860
     3.0363   3.0372   3.0730   3.1768   3.1836   3.4079   3.4182   3.5465
     3.5727   3.5762   3.8429   3.8476   3.9551   3.9771   3.9771   4.0112
     4.0347   4.1628   4.1655   4.4006   4.4020   4.4796   4.4888   4.5999
     4.6134   4.6198   4.6334   4.6470   4.8086   5.3997   5.4104   5.4398
     5.5390   5.5464   5.6012   5.6895   5.7238   5.7276   5.7417   5.8378
     5.8382   5.8935   5.8946   5.9366   5.9820   6.0389   6.0807   6.1622
     6.1801   6.1990   6.2063   6.2197   6.2320   6.2364   6.2446   6.2473

          k =-0.2500 0.2500-0.0833 (167653 PWs)   bands (ev):

   -19.6123  -7.4212  -6.7290  -6.2011  -6.1994  -5.7707  -5.3622  -5.2692
    -5.2676  -5.0724  -5.0723  -4.9558  -4.9541  -4.8759  -4.8533  -4.7800
    -4.6949  -4.6915  -4.6526  -4.6525  -4.4916  -4.4746  -4.4743  -4.4728
    -4.4669  -4.4109  -4.4109  -4.3995  -4.3982  -4.3619  -4.3502  -4.3489
    -4.3072  -4.3071  -4.2735  -4.2724  -4.2212  -4.2196  -4.2102  -4.2082
    -4.2031  -4.1899  -4.1899  -4.1487  -4.1308  -4.1299  -4.1238  -4.1230
    -4.0920  -4.0423  -4.0268  -4.0255  -4.0235  -4.0227  -4.0146  -4.0090
    -4.0084  -4.0084  -3.9444  -3.9438  -3.8945  -3.8941  -3.8815  -3.8554
    -3.8550  -3.8376  -3.8324  -3.8323  -3.8279  -3.8246  -3.7770  -3.7756
    -3.7630  -3.7618  -3.7261  -3.6580  -3.6537  -3.6518  -3.6462  -3.6129
    -3.6037  -3.5908  -3.5603  -3.5592  -3.5323  -3.5299  -3.5101  -3.5089
    -3.4968  -3.4951  -3.4414  -3.4405  -3.4221  -3.4075  -3.3955  -3.3943
    -3.3937  -3.3926  -3.3658  -3.3651  -3.3291  -3.3281  -3.3067  -3.3059
    -3.2738  -3.2732  -3.2550  -3.2276  -3.2274  -3.1905  -3.1896  -3.1544
    -3.1470  -3.1462  -3.1328  -3.1317  -3.1273  -3.1265  -3.0880  -3.0790
    -3.0376  -3.0375  -3.0296  -3.0200  -3.0198  -3.0172  -2.9938  -2.9936
    -2.9730  -2.9723  -2.9707  -2.9448  -2.9447  -2.9373  -2.9344  -2.9342
    -2.8987  -2.8937  -2.8592  -2.8578  -2.8577  -2.8548  -2.8546  -2.7755
    -2.7655  -2.7620  -2.7601  -2.7599  -2.7590  -2.7547  -2.7545  -2.7543
    -2.7530  -2.7443  -2.7366  -2.7197  -2.7170  -2.7168  -2.7146  -2.7014
    -2.6967  -2.6584  -2.6580  -2.6575  -2.6544  -2.6523  -2.6356  -2.6345
    -2.6262  -2.6260  -2.6237  -2.5645  -2.5642  -2.5589  -2.5587  -2.5538
    -2.5534  -2.5255  -2.4661  -2.4654  -2.4646  -2.4632  -2.4516  -2.4497
    -2.4443  -2.4338  -2.4332  -2.3977  -2.3955  -2.3886  -2.3874  -2.3865
    -2.3859  -2.3476  -2.3464  -2.3373  -2.3370  -2.3356  -2.3350  -2.2930
    -2.2766  -2.2725  -2.2187  -2.2179  -2.2000  -2.1986  -2.1931  -2.1927
    -2.1453  -2.1431  -2.1204  -2.1046  -2.0903  -2.0891  -2.0888  -2.0672
    -2.0666  -2.0572  -2.0402  -1.9999  -1.9982  -1.9865  -1.9862  -1.9852
    -1.9743  -1.9738  -1.9588  -1.9581  -1.9569  -1.9538  -1.9508  -1.9495
    -1.9467  -1.9370  -1.9357  -1.9187  -1.9181  -1.9162  -1.9102  -1.9073
    -1.9063  -1.8837  -1.8824  -1.8716  -1.8696  -1.8660  -1.8632  -1.8260
    -1.7935  -1.7911  -1.7569  -1.7402  -1.7396  -1.7299  -1.7286  -1.7094
    -1.7058  -1.6907  -1.6904  -1.6889  -1.6884  -1.6861  -1.6856  -1.6533
    -1.6526  -1.6521  -1.6268  -1.6070  -1.6036  -1.5663  -1.5655  -1.5193
    -1.5177  -1.5061  -1.4841  -1.4783  -1.4770  -1.4593  -1.4587  -1.4417
    -1.4394  -1.4366  -1.4357  -1.4347  -1.4325  -1.4313  -1.4304  -1.4107
    -1.4102  -1.3988  -1.3827  -1.3637  -1.3634  -1.3378  -1.3373  -1.3350
    -1.3336  -1.3303  -1.3263  -1.3068  -1.3049  -1.2925  -1.2881  -1.2767
    -1.2680  -1.2550  -1.2528  -1.2236  -1.2227  -1.2153  -1.2140  -1.1805
    -1.1778  -1.1715  -1.1698  -1.1627  -1.1612  -1.1409  -1.1398  -1.1285
    -1.1222  -1.1211  -1.1092  -1.1087  -1.1072  -1.1051  -1.0932  -1.0823
    -1.0820  -1.0748  -1.0743  -1.0622  -1.0586  -1.0562  -1.0510  -1.0120
    -1.0090  -1.0035  -1.0030  -1.0026  -0.9999  -0.9623  -0.9469  -0.9451
    -0.9446  -0.9437  -0.9405  -0.9383  -0.9351  -0.9206  -0.9205  -0.8843
    -0.8815  -0.8761  -0.8756  -0.8533  -0.8526  -0.8431  -0.8134  -0.8057
    -0.7789  -0.7775  -0.7504  -0.7500  -0.7470  -0.7461  -0.7455  -0.7417
    -0.7375  -0.7361  -0.7318  -0.7309  -0.6998  -0.6987  -0.6828  -0.6792
    -0.6761  -0.6753  -0.6748  -0.6699  -0.6551  -0.3773  -0.3706  -0.3169
    -0.3067  -0.2736  -0.1129  -0.0486  -0.0468  -0.0152   0.2702   0.2732
     0.5976   0.6069   0.6999   0.7009   0.7398   0.7438   0.8819   0.8893
     1.0094   1.0107   1.0980   1.6964   1.7147   1.7151   1.7543   1.7586
     1.7944   1.8127   1.8820   1.8894   2.0909   2.0934   2.3255   2.4027
     2.4127   2.4233   2.7957   2.8106   2.8767   2.8795   2.8839   2.8865
     3.0365   3.0370   3.0715   3.1744   3.1882   3.4078   3.4199   3.5463
     3.5718   3.5770   3.8413   3.8493   3.9566   3.9769   3.9781   4.0205
     4.0259   4.1621   4.1664   4.4005   4.4022   4.4861   4.4875   4.5692
     4.6127   4.6185   4.6301   4.6519   4.8320   5.3824   5.4205   5.4781
     5.5295   5.5523   5.5953   5.6436   5.7224   5.7294   5.7437   5.8365
     5.8393   5.8929   5.8955   5.9379   5.9865   6.0087   6.1250   6.1486
     6.1767   6.2063   6.2186   6.2265   6.2301   6.2336   6.2422   6.2448

          k = 0.2500-0.2500-0.0833 (167653 PWs)   bands (ev):

   -19.6123  -7.4212  -6.7290  -6.2011  -6.1994  -5.7707  -5.3622  -5.2692
    -5.2676  -5.0724  -5.0723  -4.9558  -4.9541  -4.8759  -4.8533  -4.7800
    -4.6949  -4.6915  -4.6526  -4.6525  -4.4916  -4.4746  -4.4743  -4.4728
    -4.4669  -4.4109  -4.4109  -4.3995  -4.3982  -4.3619  -4.3502  -4.3489
    -4.3072  -4.3071  -4.2735  -4.2724  -4.2212  -4.2196  -4.2102  -4.2082
    -4.2031  -4.1899  -4.1899  -4.1487  -4.1308  -4.1299  -4.1238  -4.1230
    -4.0920  -4.0423  -4.0268  -4.0255  -4.0235  -4.0227  -4.0146  -4.0090
    -4.0084  -4.0084  -3.9444  -3.9438  -3.8945  -3.8941  -3.8815  -3.8554
    -3.8550  -3.8376  -3.8324  -3.8323  -3.8279  -3.8246  -3.7770  -3.7756
    -3.7630  -3.7618  -3.7261  -3.6580  -3.6537  -3.6518  -3.6462  -3.6129
    -3.6037  -3.5908  -3.5603  -3.5592  -3.5323  -3.5299  -3.5101  -3.5089
    -3.4968  -3.4951  -3.4414  -3.4405  -3.4221  -3.4075  -3.3955  -3.3943
    -3.3937  -3.3926  -3.3658  -3.3651  -3.3291  -3.3281  -3.3067  -3.3059
    -3.2738  -3.2732  -3.2550  -3.2276  -3.2274  -3.1905  -3.1896  -3.1544
    -3.1470  -3.1462  -3.1328  -3.1317  -3.1273  -3.1265  -3.0880  -3.0790
    -3.0376  -3.0375  -3.0296  -3.0200  -3.0198  -3.0172  -2.9938  -2.9936
    -2.9730  -2.9723  -2.9707  -2.9448  -2.9447  -2.9373  -2.9344  -2.9342
    -2.8987  -2.8937  -2.8592  -2.8578  -2.8577  -2.8548  -2.8546  -2.7755
    -2.7655  -2.7620  -2.7601  -2.7599  -2.7590  -2.7547  -2.7545  -2.7543
    -2.7530  -2.7443  -2.7366  -2.7197  -2.7170  -2.7168  -2.7146  -2.7014
    -2.6967  -2.6584  -2.6580  -2.6575  -2.6544  -2.6523  -2.6356  -2.6345
    -2.6262  -2.6260  -2.6237  -2.5645  -2.5642  -2.5589  -2.5587  -2.5538
    -2.5534  -2.5255  -2.4661  -2.4654  -2.4646  -2.4632  -2.4516  -2.4497
    -2.4443  -2.4338  -2.4332  -2.3977  -2.3955  -2.3886  -2.3874  -2.3865
    -2.3859  -2.3476  -2.3464  -2.3373  -2.3370  -2.3356  -2.3350  -2.2930
    -2.2766  -2.2725  -2.2187  -2.2179  -2.2000  -2.1986  -2.1931  -2.1927
    -2.1453  -2.1431  -2.1204  -2.1046  -2.0903  -2.0891  -2.0888  -2.0672
    -2.0666  -2.0572  -2.0402  -1.9999  -1.9982  -1.9865  -1.9862  -1.9852
    -1.9743  -1.9738  -1.9588  -1.9581  -1.9569  -1.9538  -1.9508  -1.9495
    -1.9467  -1.9370  -1.9357  -1.9187  -1.9181  -1.9162  -1.9102  -1.9073
    -1.9063  -1.8837  -1.8824  -1.8716  -1.8696  -1.8660  -1.8632  -1.8260
    -1.7935  -1.7911  -1.7569  -1.7402  -1.7396  -1.7299  -1.7286  -1.7094
    -1.7058  -1.6907  -1.6904  -1.6889  -1.6884  -1.6861  -1.6856  -1.6533
    -1.6526  -1.6521  -1.6268  -1.6070  -1.6036  -1.5663  -1.5655  -1.5193
    -1.5177  -1.5061  -1.4841  -1.4783  -1.4770  -1.4593  -1.4587  -1.4417
    -1.4394  -1.4366  -1.4357  -1.4347  -1.4325  -1.4313  -1.4304  -1.4107
    -1.4102  -1.3988  -1.3827  -1.3637  -1.3634  -1.3378  -1.3373  -1.3350
    -1.3336  -1.3303  -1.3263  -1.3068  -1.3049  -1.2925  -1.2881  -1.2767
    -1.2680  -1.2550  -1.2528  -1.2236  -1.2227  -1.2153  -1.2140  -1.1805
    -1.1778  -1.1715  -1.1698  -1.1627  -1.1612  -1.1409  -1.1398  -1.1285
    -1.1222  -1.1211  -1.1092  -1.1087  -1.1072  -1.1051  -1.0932  -1.0823
    -1.0820  -1.0748  -1.0743  -1.0622  -1.0586  -1.0562  -1.0510  -1.0120
    -1.0090  -1.0035  -1.0030  -1.0026  -0.9999  -0.9623  -0.9469  -0.9451
    -0.9446  -0.9437  -0.9405  -0.9383  -0.9351  -0.9206  -0.9205  -0.8843
    -0.8815  -0.8761  -0.8756  -0.8533  -0.8526  -0.8431  -0.8134  -0.8057
    -0.7789  -0.7775  -0.7504  -0.7500  -0.7470  -0.7461  -0.7455  -0.7417
    -0.7375  -0.7361  -0.7318  -0.7309  -0.6998  -0.6987  -0.6828  -0.6792
    -0.6761  -0.6753  -0.6748  -0.6699  -0.6551  -0.3773  -0.3706  -0.3169
    -0.3067  -0.2736  -0.1129  -0.0486  -0.0468  -0.0152   0.2702   0.2732
     0.5976   0.6069   0.6999   0.7009   0.7398   0.7438   0.8819   0.8893
     1.0094   1.0107   1.0980   1.6964   1.7147   1.7151   1.7543   1.7586
     1.7944   1.8127   1.8820   1.8894   2.0909   2.0934   2.3255   2.4027
     2.4127   2.4233   2.7957   2.8106   2.8767   2.8795   2.8839   2.8865
     3.0365   3.0370   3.0715   3.1744   3.1882   3.4078   3.4199   3.5463
     3.5718   3.5770   3.8413   3.8493   3.9566   3.9769   3.9781   4.0205
     4.0259   4.1621   4.1664   4.4005   4.4022   4.4861   4.4875   4.5692
     4.6127   4.6185   4.6301   4.6519   4.8320   5.3824   5.4205   5.4784
     5.5293   5.5523   5.5945   5.6442   5.7224   5.7294   5.7437   5.8365
     5.8394   5.8929   5.8955   5.9379   5.9865   6.0087   6.1267   6.1471
     6.1769   6.2065   6.2184   6.2262   6.2301   6.2337   6.2422   6.2448

          k =-0.2500 0.2500 0.2500 (167588 PWs)   bands (ev):

   -19.6123  -7.4212  -6.7290  -6.2011  -6.1994  -5.7707  -5.3622  -5.2692
    -5.2676  -5.0724  -5.0723  -4.9558  -4.9541  -4.8759  -4.8533  -4.7800
    -4.6949  -4.6914  -4.6526  -4.6525  -4.4916  -4.4746  -4.4743  -4.4728
    -4.4669  -4.4109  -4.4109  -4.3995  -4.3982  -4.3619  -4.3502  -4.3489
    -4.3072  -4.3071  -4.2735  -4.2724  -4.2212  -4.2196  -4.2102  -4.2082
    -4.2031  -4.1899  -4.1899  -4.1487  -4.1308  -4.1299  -4.1238  -4.1230
    -4.0920  -4.0423  -4.0268  -4.0255  -4.0235  -4.0227  -4.0146  -4.0090
    -4.0084  -4.0084  -3.9444  -3.9438  -3.8945  -3.8941  -3.8815  -3.8554
    -3.8550  -3.8376  -3.8324  -3.8323  -3.8278  -3.8246  -3.7770  -3.7756
    -3.7630  -3.7618  -3.7261  -3.6580  -3.6537  -3.6518  -3.6462  -3.6129
    -3.6037  -3.5908  -3.5603  -3.5592  -3.5323  -3.5299  -3.5101  -3.5089
    -3.4968  -3.4951  -3.4414  -3.4405  -3.4221  -3.4075  -3.3955  -3.3943
    -3.3937  -3.3926  -3.3658  -3.3651  -3.3291  -3.3281  -3.3067  -3.3059
    -3.2738  -3.2732  -3.2550  -3.2276  -3.2274  -3.1905  -3.1896  -3.1544
    -3.1470  -3.1462  -3.1328  -3.1317  -3.1273  -3.1265  -3.0880  -3.0791
    -3.0376  -3.0375  -3.0296  -3.0200  -3.0198  -3.0172  -2.9938  -2.9936
    -2.9730  -2.9723  -2.9707  -2.9448  -2.9447  -2.9373  -2.9344  -2.9342
    -2.8987  -2.8937  -2.8592  -2.8578  -2.8577  -2.8548  -2.8546  -2.7755
    -2.7655  -2.7620  -2.7601  -2.7599  -2.7590  -2.7547  -2.7545  -2.7543
    -2.7530  -2.7443  -2.7366  -2.7197  -2.7170  -2.7168  -2.7146  -2.7014
    -2.6967  -2.6584  -2.6580  -2.6575  -2.6544  -2.6523  -2.6356  -2.6345
    -2.6262  -2.6260  -2.6237  -2.5645  -2.5642  -2.5589  -2.5587  -2.5538
    -2.5534  -2.5255  -2.4661  -2.4654  -2.4646  -2.4632  -2.4516  -2.4497
    -2.4443  -2.4338  -2.4332  -2.3977  -2.3955  -2.3886  -2.3874  -2.3865
    -2.3859  -2.3476  -2.3464  -2.3373  -2.3370  -2.3356  -2.3350  -2.2930
    -2.2766  -2.2725  -2.2187  -2.2179  -2.2000  -2.1986  -2.1931  -2.1927
    -2.1453  -2.1431  -2.1204  -2.1046  -2.0903  -2.0891  -2.0888  -2.0672
    -2.0666  -2.0572  -2.0402  -1.9998  -1.9982  -1.9865  -1.9862  -1.9852
    -1.9743  -1.9738  -1.9588  -1.9581  -1.9569  -1.9539  -1.9508  -1.9495
    -1.9467  -1.9370  -1.9357  -1.9187  -1.9181  -1.9162  -1.9102  -1.9073
    -1.9063  -1.8837  -1.8824  -1.8716  -1.8696  -1.8660  -1.8632  -1.8260
    -1.7935  -1.7911  -1.7569  -1.7402  -1.7396  -1.7299  -1.7286  -1.7094
    -1.7058  -1.6907  -1.6904  -1.6889  -1.6884  -1.6861  -1.6856  -1.6533
    -1.6526  -1.6521  -1.6268  -1.6070  -1.6036  -1.5663  -1.5655  -1.5193
    -1.5177  -1.5061  -1.4841  -1.4783  -1.4770  -1.4594  -1.4587  -1.4417
    -1.4394  -1.4366  -1.4357  -1.4347  -1.4325  -1.4313  -1.4304  -1.4107
    -1.4102  -1.3988  -1.3827  -1.3637  -1.3634  -1.3378  -1.3373  -1.3349
    -1.3336  -1.3303  -1.3263  -1.3068  -1.3049  -1.2925  -1.2881  -1.2767
    -1.2680  -1.2550  -1.2528  -1.2236  -1.2227  -1.2152  -1.2140  -1.1805
    -1.1778  -1.1715  -1.1698  -1.1627  -1.1612  -1.1409  -1.1398  -1.1285
    -1.1222  -1.1211  -1.1092  -1.1087  -1.1072  -1.1051  -1.0932  -1.0823
    -1.0820  -1.0748  -1.0743  -1.0622  -1.0586  -1.0562  -1.0510  -1.0120
    -1.0090  -1.0035  -1.0030  -1.0026  -0.9999  -0.9623  -0.9469  -0.9451
    -0.9446  -0.9437  -0.9405  -0.9383  -0.9351  -0.9206  -0.9205  -0.8843
    -0.8815  -0.8761  -0.8756  -0.8533  -0.8526  -0.8431  -0.8134  -0.8057
    -0.7789  -0.7775  -0.7504  -0.7500  -0.7470  -0.7461  -0.7455  -0.7417
    -0.7375  -0.7361  -0.7318  -0.7309  -0.6998  -0.6987  -0.6828  -0.6792
    -0.6761  -0.6753  -0.6748  -0.6699  -0.6551  -0.3773  -0.3706  -0.3169
    -0.3066  -0.2736  -0.1129  -0.0486  -0.0468  -0.0152   0.2702   0.2732
     0.5976   0.6068   0.6999   0.7009   0.7398   0.7438   0.8819   0.8893
     1.0094   1.0107   1.0980   1.6964   1.7147   1.7151   1.7543   1.7586
     1.7944   1.8127   1.8820   1.8894   2.0909   2.0934   2.3255   2.4027
     2.4127   2.4233   2.7957   2.8106   2.8767   2.8795   2.8839   2.8865
     3.0365   3.0370   3.0715   3.1744   3.1882   3.4078   3.4199   3.5463
     3.5718   3.5770   3.8413   3.8493   3.9566   3.9769   3.9781   4.0207
     4.0260   4.1621   4.1664   4.4005   4.4022   4.4861   4.4875   4.5680
     4.6127   4.6184   4.6301   4.6518   4.8309   5.3822   5.4090   5.4638
     5.5283   5.5516   5.5874   5.7223   5.7281   5.7323   5.7383   5.8363
     5.8397   5.8929   5.8956   5.9379   5.9891   6.0480   6.0612   6.1863
     6.1981   6.2031   6.2183   6.2292   6.2341   6.2416   6.2427   6.2457

     the Fermi energy is     0.9597 ev

!    total energy              =   -7425.29481398 Ry
     Harris-Foulkes estimate   =   -7425.29481397 Ry
     estimated scf accuracy    <          3.0E-09 Ry

     The total energy is the sum of the following terms:

     one-electron contribution =  -48616.00665581 Ry
     hartree contribution      =   24861.52537810 Ry
     xc contribution           =   -3604.20281316 Ry
     ewald contribution        =   19933.39215267 Ry
     smearing contrib. (-TS)   =      -0.00287578 Ry

     convergence has been achieved in  29 iterations

     Writing output data file 3490956.save

     init_run     :    101.16s CPU    109.12s WALL (       1 calls)
     electrons    :   6600.92s CPU   7058.85s WALL (       1 calls)

     Called by init_run:
     wfcinit      :     72.04s CPU     78.98s WALL (       1 calls)
     potinit      :      6.28s CPU      6.73s WALL (       1 calls)

     Called by electrons:
     c_bands      :   5233.32s CPU   5598.97s WALL (      30 calls)
     sum_band     :    825.60s CPU    898.94s WALL (      30 calls)
     v_of_rho     :    114.17s CPU    125.25s WALL (      30 calls)
     newd         :    438.48s CPU    444.80s WALL (      30 calls)
     mix_rho      :      3.30s CPU      3.70s WALL (      30 calls)
     vdW_energy   :     10.46s CPU     11.26s WALL (      30 calls)
     vdW_ffts     :     55.26s CPU     60.79s WALL (      60 calls)
     vdW_v        :     15.92s CPU     16.83s WALL (      30 calls)

     Called by c_bands:
     init_us_2    :     14.72s CPU     15.03s WALL (     366 calls)
     cegterg      :   5178.25s CPU   5542.85s WALL (     180 calls)

     Called by *egterg:
     h_psi        :   2136.14s CPU   2467.04s WALL (     867 calls)
     s_psi        :    376.14s CPU    378.31s WALL (     867 calls)
     g_psi        :      4.80s CPU      4.78s WALL (     681 calls)
     cdiaghg      :   1519.12s CPU   1524.03s WALL (     855 calls)

     Called by h_psi:
     add_vuspsi   :    378.52s CPU    380.73s WALL (     867 calls)

     General routines
     calbec       :    544.54s CPU    546.93s WALL (    1047 calls)
     fft          :    112.30s CPU    122.50s WALL (    1980 calls)
     ffts         :      1.42s CPU      1.74s WALL (      60 calls)
     fftw         :   1407.04s CPU   1737.21s WALL (  482992 calls)
     interpolate  :      3.86s CPU      4.75s WALL (      60 calls)
     davcio       :      0.00s CPU      0.19s WALL (       6 calls)

     Parallel routines
     fft_scatter  :    931.59s CPU   1167.70s WALL (  485032 calls)

     PWSCF        :     1h51m CPU        1h59m WALL


   This run was terminated on:  21: 9:33  24Jun2015            

=------------------------------------------------------------------------------=
   JOB DONE.
=------------------------------------------------------------------------------=
