Setting SGE environment for SCC

     Program PWSCF v.5.1.2 starts on 24Jun2015 at 14:53:28 

     This program is part of the open-source Quantum ESPRESSO suite
     for quantum simulation of materials; please cite
         "P. Giannozzi et al., J. Phys.:Condens. Matter 21 395502 (2009);
          URL http://www.quantum-espresso.org", 
     in publications or presentations arising from this work. More details at
     http://www.quantum-espresso.org/quote

     Parallel version (MPI), running on    32 processors
     R & G space division:  proc/nbgrp/npool/nimage =      32
     Reading input from top.O1.Au62.d.3.4.phi.0.psi.180.in
Warning: card &IONS ignored
Warning: card / ignored
Warning: card &CELL ignored
Warning: card / ignored

     Current dimensions of program PWSCF are:
     Max number of different atomic species (ntypx) = 10
     Max number of k-points (npk) =  40000
     Max angular momentum in pseudopotentials (lmaxx) =  3

     IMPORTANT: XC functional enforced from input :
     Exchange-correlation      = VDW-DF ( 1  4  4  0 1 0)
     Any further DFT definition will be discarded
     Please, verify this is what you really want


     Subspace diagonalization in iterative solution of the eigenvalue problem:
     a serial algorithm will be used


     Parallelization info
     --------------------
     sticks:   dense  smooth     PW     G-vecs:    dense   smooth      PW
     Min         578     289     74               118518    41891    5486
     Max         579     290     75               118533    41932    5497
     Sum       18505    9265   2385              3792731  1341081  175711


     Title: 
     top.O1.Au62.d.3.4.phi.0.psi.180                                            


     bravais-lattice index     =            8
     lattice parameter (alat)  =      24.1233  a.u.
     unit-cell volume          =   28076.2361 (a.u.)^3
     number of atoms/cell      =           75
     number of atomic types    =            3
     number of electrons       =       800.00
     number of Kohn-Sham states=          480
     kinetic-energy cutoff     =      50.0000  Ry
     charge density cutoff     =     400.0000  Ry
     convergence threshold     =      1.0E-08
     mixing beta               =       0.7000
     number of iterations used =            8  plain     mixing
     Exchange-correlation      = VDW-DF ( 1  4  4  0 1 0)

     celldm(1)=  24.123277  celldm(2)=   1.000000  celldm(3)=   2.000000
     celldm(4)=   0.000000  celldm(5)=   0.000000  celldm(6)=   0.000000

     crystal axes: (cart. coord. in units of alat)
               a(1) = (   1.000000   0.000000   0.000000 )  
               a(2) = (   0.000000   1.000000   0.000000 )  
               a(3) = (   0.000000   0.000000   2.000000 )  

     reciprocal axes: (cart. coord. in units 2 pi/alat)
               b(1) = (  1.000000  0.000000  0.000000 )  
               b(2) = (  0.000000  1.000000  0.000000 )  
               b(3) = (  0.000000  0.000000  0.500000 )  


     PseudoPot. # 1 for Au read from file:
     /home/scc/andrejb/qe/pseudo/Au.pbe-nd-van.UPF
     MD5 check sum: 458681b50f36d87ef23c61b04bba420a
     Pseudo is Ultrasoft + core correction, Zval = 11.0
     Generated by new atomic code, or converted to UPF format
     Using radial grid of  985 points,  3 beta functions with: 
                l(1) =   1
                l(2) =   2
                l(3) =   2
     Q(r) pseudized with  8 coefficients,  rinner =    1.100   1.100   1.100
                                                       1.100   1.100

     PseudoPot. # 2 for H  read from file:
     /home/scc/andrejb/qe/pseudo/H.pbe-van_ak.UPF
     MD5 check sum: 403db7282739603aa925980fa9b8608d
     Pseudo is Ultrasoft, Zval =  1.0
     Generated by new atomic code, or converted to UPF format
     Using radial grid of  615 points,  1 beta functions with: 
                l(1) =   0
     Q(r) pseudized with  8 coefficients,  rinner =    0.800

     PseudoPot. # 3 for O  read from file:
     /home/scc/andrejb/qe/pseudo/O.pbe-van_ak.UPF
     MD5 check sum: 4b8c549914a63cae506c6ff22b5af4fe
     Pseudo is Ultrasoft, Zval =  6.0
     Generated by new atomic code, or converted to UPF format
     Using radial grid of  737 points,  4 beta functions with: 
                l(1) =   0
                l(2) =   0
                l(3) =   1
                l(4) =   1
     Q(r) pseudized with  8 coefficients,  rinner =    0.800   0.800   0.800


     vdW kernel table read from file vdW_kernel_table
     MD5 check sum: 48e77a2e26edf626eeb0eaa751ad5cac

     atomic species   valence    mass     pseudopotential
        Au            11.00   196.96657     Au( 1.00)
        H              1.00     1.01000     H ( 1.00)
        O              6.00    16.00000     O ( 1.00)

     No symmetry found



   Cartesian axes

     site n.     atom                  positions (alat units)
         1           O   tau(   1) = (   0.4998324   0.3332216   0.7656616  )
         2           H   tau(   2) = (   0.4527548   0.3723930   0.7201677  )
         3           H   tau(   3) = (   0.5454827   0.2952199   0.7178040  )
         4           Au  tau(   4) = (   0.0000000   0.0000000   0.0000000  )
         5           Au  tau(   5) = (   0.3332217   0.0000000   0.0000000  )
         6           Au  tau(   6) = (   0.6664435   0.0000000   0.0000000  )
         7           Au  tau(   7) = (   0.1666109   0.1666109   0.0000000  )
         8           Au  tau(   8) = (   0.4998326   0.1666109   0.0000000  )
         9           Au  tau(   9) = (   0.8330542   0.1666109   0.0000000  )
        10           Au  tau(  10) = (   0.0000000   0.3332217   0.0000000  )
        11           Au  tau(  11) = (   0.3332217   0.3332217   0.0000000  )
        12           Au  tau(  12) = (   0.6664435   0.3332217   0.0000000  )
        13           Au  tau(  13) = (   0.1666109   0.4998326   0.0000000  )
        14           Au  tau(  14) = (   0.4998326   0.4998326   0.0000000  )
        15           Au  tau(  15) = (   0.8330542   0.4998326   0.0000000  )
        16           Au  tau(  16) = (   0.0000000   0.6664435   0.0000000  )
        17           Au  tau(  17) = (   0.3332217   0.6664435   0.0000000  )
        18           Au  tau(  18) = (   0.6664435   0.6664435   0.0000000  )
        19           Au  tau(  19) = (   0.1666109   0.8330542   0.0000000  )
        20           Au  tau(  20) = (   0.4998326   0.8330542   0.0000000  )
        21           Au  tau(  21) = (   0.8330542   0.8330542   0.0000000  )
        22           Au  tau(  22) = (   0.1666109   0.0000000   0.1666109  )
        23           Au  tau(  23) = (   0.4998326   0.0000000   0.1666109  )
        24           Au  tau(  24) = (   0.8330542   0.0000000   0.1666109  )
        25           Au  tau(  25) = (   0.0000000   0.1666109   0.1666109  )
        26           Au  tau(  26) = (   0.3332217   0.1666109   0.1666109  )
        27           Au  tau(  27) = (   0.6664435   0.1666109   0.1666109  )
        28           Au  tau(  28) = (   0.1666109   0.3332217   0.1666109  )
        29           Au  tau(  29) = (   0.4998326   0.3332217   0.1666109  )
        30           Au  tau(  30) = (   0.8330542   0.3332217   0.1666109  )
        31           Au  tau(  31) = (   0.0000000   0.4998326   0.1666109  )
        32           Au  tau(  32) = (   0.3332217   0.4998326   0.1666109  )
        33           Au  tau(  33) = (   0.6664435   0.4998326   0.1666109  )
        34           Au  tau(  34) = (   0.1666109   0.6664435   0.1666109  )
        35           Au  tau(  35) = (   0.4998326   0.6664435   0.1666109  )
        36           Au  tau(  36) = (   0.8330542   0.6664435   0.1666109  )
        37           Au  tau(  37) = (   0.0000000   0.8330542   0.1666109  )
        38           Au  tau(  38) = (   0.3332217   0.8330542   0.1666109  )
        39           Au  tau(  39) = (   0.6664435   0.8330542   0.1666109  )
        40           Au  tau(  40) = (  -0.0000182  -0.0000182   0.3335478  )
        41           Au  tau(  41) = (   0.3332215  -0.0000181   0.3335472  )
        42           Au  tau(  42) = (   0.6664447  -0.0000183   0.3335481  )
        43           Au  tau(  43) = (  -0.0000181   0.3332215   0.3335472  )
        44           Au  tau(  44) = (   0.3332215   0.3332215   0.3335468  )
        45           Au  tau(  45) = (   0.6664445   0.3332215   0.3335478  )
        46           Au  tau(  46) = (  -0.0000183   0.6664447   0.3335481  )
        47           Au  tau(  47) = (   0.3332215   0.6664445   0.3335478  )
        48           Au  tau(  48) = (   0.6664446   0.6664446   0.3335486  )
        49           Au  tau(  49) = (   0.1666097   0.1666097   0.3335483  )
        50           Au  tau(  50) = (   0.4998320   0.1666098   0.3335477  )
        51           Au  tau(  51) = (   0.8330732   0.1666096   0.3335481  )
        52           Au  tau(  52) = (   0.1666098   0.4998320   0.3335477  )
        53           Au  tau(  53) = (   0.4998321   0.4998321   0.3335470  )
        54           Au  tau(  54) = (   0.8330730   0.4998322   0.3335474  )
        55           Au  tau(  55) = (   0.1666096   0.8330732   0.3335481  )
        56           Au  tau(  56) = (   0.4998322   0.8330730   0.3335474  )
        57           Au  tau(  57) = (   0.8330731   0.8330731   0.3335478  )
        58           Au  tau(  58) = (   0.1666104  -0.0000111   0.4993095  )
        59           Au  tau(  59) = (   0.4998323  -0.0000112   0.4993099  )
        60           Au  tau(  60) = (   0.8330661  -0.0000111   0.4993009  )
        61           Au  tau(  61) = (  -0.0000111   0.1666104   0.4993095  )
        62           Au  tau(  62) = (   0.3332214   0.1666106   0.4993185  )
        63           Au  tau(  63) = (   0.6664437   0.1666106   0.4993187  )
        64           Au  tau(  64) = (   0.1666106   0.3332214   0.4993185  )
        65           Au  tau(  65) = (   0.4998324   0.3332216   0.4993185  )
        66           Au  tau(  66) = (   0.8330659   0.3332215   0.4993103  )
        67           Au  tau(  67) = (  -0.0000112   0.4998323   0.4993099  )
        68           Au  tau(  68) = (   0.3332216   0.4998324   0.4993185  )
        69           Au  tau(  69) = (   0.6664436   0.4998325   0.4993187  )
        70           Au  tau(  70) = (   0.1666106   0.6664437   0.4993187  )
        71           Au  tau(  71) = (   0.4998325   0.6664436   0.4993187  )
        72           Au  tau(  72) = (   0.8330658   0.6664438   0.4993102  )
        73           Au  tau(  73) = (  -0.0000111   0.8330661   0.4993009  )
        74           Au  tau(  74) = (   0.3332215   0.8330659   0.4993103  )
        75           Au  tau(  75) = (   0.6664438   0.8330658   0.4993102  )

     number of k points=     6  Marzari-Vanderbilt smearing, width (Ry)=  0.0200
                       cart. coord. in units 2pi/alat
        k(    1) = (   0.2500000   0.2500000   0.0833333), wk =   0.3333333
        k(    2) = (   0.2500000   0.2500000  -0.2500000), wk =   0.3333333
        k(    3) = (  -0.2500000  -0.2500000   0.0833333), wk =   0.3333333
        k(    4) = (  -0.2500000   0.2500000  -0.0833333), wk =   0.3333333
        k(    5) = (   0.2500000  -0.2500000  -0.0833333), wk =   0.3333333
        k(    6) = (  -0.2500000   0.2500000   0.2500000), wk =   0.3333333

     Dense  grid:  3792731 G-vectors     FFT dimensions: ( 160, 160, 320)

     Smooth grid:  1341081 G-vectors     FFT dimensions: ( 120, 120, 225)

     Largest allocated arrays     est. size (Mb)     dimensions
        Kohn-Sham Wavefunctions        38.58 Mb     (    5267,  480)
        NL pseudopotentials            76.03 Mb     (    5267,  946)
        Each V/rho on FFT grid          3.91 Mb     (  256000)
        Each G-vector array             0.90 Mb     (  118520)
        G-vector shells                 0.08 Mb     (   10286)
     Largest temporary arrays     est. size (Mb)     dimensions
        Auxiliary wavefunctions       154.31 Mb     (    5267, 1920)
        Each subspace H/S matrix       56.25 Mb     (    1920, 1920)
        Each <psi_i|beta_j> matrix      6.93 Mb     (     946,  480)
        Arrays for rho mixing          31.25 Mb     (  256000,    8)

     Initial potential from superposition of free atoms
     Check: negative starting charge=   -1.945210

     starting charge  799.16392, renormalised to  800.00000

     negative rho (up, down):  1.947E+00 0.000E+00


     ************************************************************************
     *
     * You are using vdW-DF for exchange-correlation in this calculation.
     * Please cite the following three references that made this development
     * possible:
     *
     *   M. Dion, H. Rydberg, E. Schroder, D. C. Langreth, and
     *   B. I. Lundqvist, Phys. Rev. Lett. 92, 246401 (2004).
     *
     *   T. Thonhauser, V. R. Cooper, S. Li, A. Puzder, P. Hyldgaard, and
     *   D. C. Langreth, Phys. Rev. B 76, 125112 (2007).
     *
     *   G. Roman-Perez and J. M. Soler, Phys. Rev. Lett. 103, 096102 (2009).
     *
     *
     * If you are using vdW-DF2, please also cite:
     *
     *   K. Lee, E. D. Murray, L. Kong, B. I. Lundqvist, and
     *   D. C. Langreth, Phys. Rev. B 82, 081101(R) (2010).
     *
     *
     * If you are calculating the stress with vdW-DF, please also cite:
     *
     *   R. Sabatini, E. Kucukbenli, B. Kolb, T. Thonhauser, and
     *   S. de Gironcoli, J. Phys.: Condens. Matter 24, 424209 (2012).
     *
     ************************************************************************

     Carrying out vdW-DF run using the following parameters:

     Nqs =      20    Nr_points =    1024   r_max =   100.000
     q_mesh =
               0.00001000     0.04494208     0.09755937     0.15916263
               0.23128650     0.31572767     0.41458969     0.53033537
               0.66584808     0.82450364     1.01025438     1.22772762
               1.48234092     1.78043706     2.12944203     2.53805004
               3.01644009     3.57652955     4.23227104     5.00000000

     Gradients computed in reciprocal space

     ************************************************************************


     Starting wfc are  654 randomized atomic wfcs

     total cpu time spent up to now is       94.7 secs

     Self-consistent Calculation

     iteration #  1     ecut=    50.00 Ry     beta=0.70
     Davidson diagonalization with overlap
     ethr =  1.00E-02,  avg # of iterations =  3.0

     Threshold (ethr) on eigenvalues was too large:
     Diagonalizing with lowered threshold

     Davidson diagonalization with overlap
     ethr =  4.20E-04,  avg # of iterations =  2.0

     negative rho (up, down):  1.947E+00 0.000E+00

     total cpu time spent up to now is      419.8 secs

     total energy              =   -7423.04344835 Ry
     Harris-Foulkes estimate   =   -7426.06624920 Ry
     estimated scf accuracy    <       3.73788696 Ry

     iteration #  2     ecut=    50.00 Ry     beta=0.70
     Davidson diagonalization with overlap
     ethr =  4.67E-04,  avg # of iterations = 11.2

     negative rho (up, down):  1.943E+00 0.000E+00

     total cpu time spent up to now is     1026.1 secs

     total energy              =   -7415.30044504 Ry
     Harris-Foulkes estimate   =   -7432.59259536 Ry
     estimated scf accuracy    <      89.81124834 Ry

     iteration #  3     ecut=    50.00 Ry     beta=0.70
     Davidson diagonalization with overlap
     ethr =  4.67E-04,  avg # of iterations =  6.0

     negative rho (up, down):  1.953E+00 0.000E+00

     total cpu time spent up to now is     1407.0 secs

     total energy              =   -7423.98100296 Ry
     Harris-Foulkes estimate   =   -7425.93825404 Ry
     estimated scf accuracy    <       8.56611873 Ry

     iteration #  4     ecut=    50.00 Ry     beta=0.70
     Davidson diagonalization with overlap
     ethr =  4.67E-04,  avg # of iterations =  7.0

     negative rho (up, down):  1.955E+00 0.000E+00

     total cpu time spent up to now is     1636.2 secs

     total energy              =   -7424.63216738 Ry
     Harris-Foulkes estimate   =   -7425.83869900 Ry
     estimated scf accuracy    <       8.02032557 Ry

     iteration #  5     ecut=    50.00 Ry     beta=0.70
     Davidson diagonalization with overlap
     ethr =  4.67E-04,  avg # of iterations =  6.5

     negative rho (up, down):  1.963E+00 0.000E+00

     total cpu time spent up to now is     1853.1 secs

     total energy              =   -7425.14875041 Ry
     Harris-Foulkes estimate   =   -7425.53459535 Ry
     estimated scf accuracy    <       2.60390236 Ry

     iteration #  6     ecut=    50.00 Ry     beta=0.70
     Davidson diagonalization with overlap
     ethr =  3.25E-04,  avg # of iterations =  3.3

     negative rho (up, down):  1.967E+00 0.000E+00

     total cpu time spent up to now is     2022.8 secs

     total energy              =   -7425.28148772 Ry
     Harris-Foulkes estimate   =   -7425.33355765 Ry
     estimated scf accuracy    <       0.17363288 Ry

     iteration #  7     ecut=    50.00 Ry     beta=0.70
     Davidson diagonalization with overlap
     ethr =  2.17E-05,  avg # of iterations =  8.0

     negative rho (up, down):  1.970E+00 0.000E+00

     total cpu time spent up to now is     2273.3 secs

     total energy              =   -7425.28142824 Ry
     Harris-Foulkes estimate   =   -7425.33279519 Ry
     estimated scf accuracy    <       0.27448262 Ry

     iteration #  8     ecut=    50.00 Ry     beta=0.70
     Davidson diagonalization with overlap
     ethr =  2.17E-05,  avg # of iterations =  3.0

     negative rho (up, down):  1.971E+00 0.000E+00

     total cpu time spent up to now is     2445.8 secs

     total energy              =   -7425.29288177 Ry
     Harris-Foulkes estimate   =   -7425.31024392 Ry
     estimated scf accuracy    <       0.07012921 Ry

     iteration #  9     ecut=    50.00 Ry     beta=0.70
     Davidson diagonalization with overlap
     ethr =  8.77E-06,  avg # of iterations =  8.0

     negative rho (up, down):  1.972E+00 0.000E+00

     total cpu time spent up to now is     2671.9 secs

     total energy              =   -7425.29239650 Ry
     Harris-Foulkes estimate   =   -7425.30271548 Ry
     estimated scf accuracy    <       0.03573012 Ry

     iteration # 10     ecut=    50.00 Ry     beta=0.70
     Davidson diagonalization with overlap
     ethr =  4.47E-06,  avg # of iterations = 10.0

     negative rho (up, down):  1.973E+00 0.000E+00

     total cpu time spent up to now is     2926.0 secs

     total energy              =   -7425.29301431 Ry
     Harris-Foulkes estimate   =   -7425.29648180 Ry
     estimated scf accuracy    <       0.01157099 Ry

     iteration # 11     ecut=    50.00 Ry     beta=0.70
     Davidson diagonalization with overlap
     ethr =  1.45E-06,  avg # of iterations =  4.8

     negative rho (up, down):  1.974E+00 0.000E+00

     total cpu time spent up to now is     3125.0 secs

     total energy              =   -7425.29300571 Ry
     Harris-Foulkes estimate   =   -7425.29455387 Ry
     estimated scf accuracy    <       0.00575222 Ry

     iteration # 12     ecut=    50.00 Ry     beta=0.70
     Davidson diagonalization with overlap
     ethr =  7.19E-07,  avg # of iterations =  3.0

     negative rho (up, down):  1.974E+00 0.000E+00

     total cpu time spent up to now is     3291.7 secs

     total energy              =   -7425.29236873 Ry
     Harris-Foulkes estimate   =   -7425.29349357 Ry
     estimated scf accuracy    <       0.00176680 Ry

     iteration # 13     ecut=    50.00 Ry     beta=0.70
     Davidson diagonalization with overlap
     ethr =  2.21E-07,  avg # of iterations =  4.7

     negative rho (up, down):  1.974E+00 0.000E+00

     total cpu time spent up to now is     3544.5 secs

     total energy              =   -7425.29226359 Ry
     Harris-Foulkes estimate   =   -7425.29347911 Ry
     estimated scf accuracy    <       0.00466182 Ry

     iteration # 14     ecut=    50.00 Ry     beta=0.70
     Davidson diagonalization with overlap
     ethr =  2.21E-07,  avg # of iterations =  2.0

     negative rho (up, down):  1.974E+00 0.000E+00

     total cpu time spent up to now is     3728.3 secs

     total energy              =   -7425.29280485 Ry
     Harris-Foulkes estimate   =   -7425.29290032 Ry
     estimated scf accuracy    <       0.00028081 Ry

     iteration # 15     ecut=    50.00 Ry     beta=0.70
     Davidson diagonalization with overlap
     ethr =  3.51E-08,  avg # of iterations =  3.0

     negative rho (up, down):  1.974E+00 0.000E+00

     total cpu time spent up to now is     3917.8 secs

     total energy              =   -7425.29279119 Ry
     Harris-Foulkes estimate   =   -7425.29294869 Ry
     estimated scf accuracy    <       0.00090165 Ry

     iteration # 16     ecut=    50.00 Ry     beta=0.70
     Davidson diagonalization with overlap
     ethr =  3.51E-08,  avg # of iterations =  2.0

     negative rho (up, down):  1.974E+00 0.000E+00

     total cpu time spent up to now is     4079.5 secs

     total energy              =   -7425.29283457 Ry
     Harris-Foulkes estimate   =   -7425.29291291 Ry
     estimated scf accuracy    <       0.00061041 Ry

     iteration # 17     ecut=    50.00 Ry     beta=0.70
     Davidson diagonalization with overlap
     ethr =  3.51E-08,  avg # of iterations =  1.0

     negative rho (up, down):  1.974E+00 0.000E+00

     total cpu time spent up to now is     4228.3 secs

     total energy              =   -7425.29287153 Ry
     Harris-Foulkes estimate   =   -7425.29288177 Ry
     estimated scf accuracy    <       0.00004244 Ry

     iteration # 18     ecut=    50.00 Ry     beta=0.70
     Davidson diagonalization with overlap
     ethr =  5.31E-09,  avg # of iterations =  2.0

     negative rho (up, down):  1.974E+00 0.000E+00

     total cpu time spent up to now is     4387.9 secs

     total energy              =   -7425.29287649 Ry
     Harris-Foulkes estimate   =   -7425.29287895 Ry
     estimated scf accuracy    <       0.00000933 Ry

     iteration # 19     ecut=    50.00 Ry     beta=0.70
     Davidson diagonalization with overlap
     ethr =  1.17E-09,  avg # of iterations =  2.0

     negative rho (up, down):  1.974E+00 0.000E+00

     total cpu time spent up to now is     4548.5 secs

     total energy              =   -7425.29287708 Ry
     Harris-Foulkes estimate   =   -7425.29287879 Ry
     estimated scf accuracy    <       0.00000739 Ry

     iteration # 20     ecut=    50.00 Ry     beta=0.70
     Davidson diagonalization with overlap
     ethr =  9.23E-10,  avg # of iterations =  2.0

     negative rho (up, down):  1.974E+00 0.000E+00

     total cpu time spent up to now is     4708.5 secs

     total energy              =   -7425.29287800 Ry
     Harris-Foulkes estimate   =   -7425.29287846 Ry
     estimated scf accuracy    <       0.00000275 Ry

     iteration # 21     ecut=    50.00 Ry     beta=0.70
     Davidson diagonalization with overlap
     ethr =  3.43E-10,  avg # of iterations =  2.0

     negative rho (up, down):  1.974E+00 0.000E+00

     total cpu time spent up to now is     4868.4 secs

     total energy              =   -7425.29287834 Ry
     Harris-Foulkes estimate   =   -7425.29287834 Ry
     estimated scf accuracy    <       0.00000017 Ry

     iteration # 22     ecut=    50.00 Ry     beta=0.70
     Davidson diagonalization with overlap
     ethr =  2.15E-11,  avg # of iterations =  3.0

     negative rho (up, down):  1.974E+00 0.000E+00

     total cpu time spent up to now is     5077.8 secs

     total energy              =   -7425.29287834 Ry
     Harris-Foulkes estimate   =   -7425.29287843 Ry
     estimated scf accuracy    <       0.00000034 Ry

     iteration # 23     ecut=    50.00 Ry     beta=0.70
     Davidson diagonalization with overlap
     ethr =  2.15E-11,  avg # of iterations =  3.0

     negative rho (up, down):  1.974E+00 0.000E+00

     total cpu time spent up to now is     5264.1 secs

     total energy              =   -7425.29287838 Ry
     Harris-Foulkes estimate   =   -7425.29287840 Ry
     estimated scf accuracy    <       0.00000007 Ry

     iteration # 24     ecut=    50.00 Ry     beta=0.70
     Davidson diagonalization with overlap
     ethr =  8.71E-12,  avg # of iterations =  2.0

     negative rho (up, down):  1.974E+00 0.000E+00

     total cpu time spent up to now is     5447.4 secs

     total energy              =   -7425.29287839 Ry
     Harris-Foulkes estimate   =   -7425.29287841 Ry
     estimated scf accuracy    <       0.00000010 Ry

     iteration # 25     ecut=    50.00 Ry     beta=0.70
     Davidson diagonalization with overlap
     ethr =  8.71E-12,  avg # of iterations =  2.0

     negative rho (up, down):  1.974E+00 0.000E+00

     total cpu time spent up to now is     5613.2 secs

     total energy              =   -7425.29287841 Ry
     Harris-Foulkes estimate   =   -7425.29287841 Ry
     estimated scf accuracy    <       0.00000002 Ry

     iteration # 26     ecut=    50.00 Ry     beta=0.70
     Davidson diagonalization with overlap
     ethr =  2.73E-12,  avg # of iterations =  2.0

     negative rho (up, down):  1.974E+00 0.000E+00

     total cpu time spent up to now is     5775.2 secs

     total energy              =   -7425.29287841 Ry
     Harris-Foulkes estimate   =   -7425.29287841 Ry
     estimated scf accuracy    <       0.00000003 Ry

     iteration # 27     ecut=    50.00 Ry     beta=0.70
     Davidson diagonalization with overlap
     ethr =  2.73E-12,  avg # of iterations =  2.0

     negative rho (up, down):  1.974E+00 0.000E+00

     total cpu time spent up to now is     5933.5 secs

     total energy              =   -7425.29287841 Ry
     Harris-Foulkes estimate   =   -7425.29287842 Ry
     estimated scf accuracy    <       0.00000004 Ry

     iteration # 28     ecut=    50.00 Ry     beta=0.70
     Davidson diagonalization with overlap
     ethr =  2.73E-12,  avg # of iterations =  2.0

     negative rho (up, down):  1.974E+00 0.000E+00

     total cpu time spent up to now is     6092.3 secs

     End of self-consistent calculation

          k = 0.2500 0.2500 0.0833 (167653 PWs)   bands (ev):

   -19.1961  -7.0209  -6.9289  -6.4006  -6.3998  -5.9706  -5.5627  -5.4687
    -5.4680  -5.2722  -5.2722  -5.1564  -5.1540  -5.0758  -5.0534  -4.9800
    -4.8951  -4.8911  -4.8527  -4.8519  -4.6919  -4.6752  -4.6735  -4.6732
    -4.6660  -4.6109  -4.6106  -4.5990  -4.5986  -4.5617  -4.5506  -4.5488
    -4.5072  -4.5068  -4.4735  -4.4722  -4.4211  -4.4199  -4.4104  -4.4084
    -4.4027  -4.3898  -4.3895  -4.3496  -4.3304  -4.3304  -4.3230  -4.3230
    -4.2917  -4.2428  -4.2261  -4.2258  -4.2245  -4.2217  -4.2144  -4.2087
    -4.2084  -4.2079  -4.1445  -4.1425  -4.0954  -4.0929  -4.0808  -4.0553
    -4.0544  -4.0366  -4.0319  -4.0311  -4.0271  -4.0245  -3.9756  -3.9756
    -3.9627  -3.9622  -3.8594  -3.8568  -3.8522  -3.8504  -3.8136  -3.8066
    -3.7892  -3.7610  -3.7603  -3.7322  -3.7311  -3.7109  -3.7094  -3.6967
    -3.6957  -3.6413  -3.6407  -3.6246  -3.6065  -3.5962  -3.5943  -3.5936
    -3.5926  -3.5664  -3.5651  -3.5317  -3.5291  -3.5077  -3.5063  -3.4741
    -3.4730  -3.4554  -3.4281  -3.4279  -3.3916  -3.3898  -3.3727  -3.3507
    -3.3463  -3.3436  -3.3319  -3.3304  -3.3267  -3.3132  -3.2899  -3.2769
    -3.2378  -3.2358  -3.2291  -3.2197  -3.2187  -3.2124  -3.1937  -3.1935
    -3.1725  -3.1715  -3.1710  -3.1448  -3.1448  -3.1372  -3.1347  -3.1323
    -3.0978  -3.0945  -3.0589  -3.0582  -3.0567  -3.0551  -3.0544  -2.9753
    -2.9654  -2.9616  -2.9607  -2.9600  -2.9590  -2.9545  -2.9538  -2.9536
    -2.9534  -2.9441  -2.9363  -2.9199  -2.9168  -2.9156  -2.9115  -2.9010
    -2.8973  -2.8585  -2.8576  -2.8574  -2.8530  -2.8526  -2.8350  -2.8347
    -2.8264  -2.8261  -2.8235  -2.7646  -2.7644  -2.7588  -2.7586  -2.7544
    -2.7516  -2.7250  -2.6664  -2.6654  -2.6648  -2.6625  -2.6515  -2.6497
    -2.6436  -2.6343  -2.6335  -2.5977  -2.5965  -2.5886  -2.5883  -2.5868
    -2.5863  -2.5478  -2.5472  -2.5376  -2.5372  -2.5355  -2.5349  -2.4921
    -2.4753  -2.4727  -2.4187  -2.4180  -2.4007  -2.3990  -2.3929  -2.3919
    -2.3450  -2.3434  -2.3207  -2.3056  -2.2915  -2.2895  -2.2882  -2.2672
    -2.2667  -2.2572  -2.2391  -2.2021  -2.2004  -2.1870  -2.1843  -2.1840
    -2.1753  -2.1738  -2.1613  -2.1583  -2.1570  -2.1541  -2.1494  -2.1481
    -2.1473  -2.1371  -2.1362  -2.1185  -2.1179  -2.1160  -2.1101  -2.1073
    -2.1063  -2.0838  -2.0827  -2.0712  -2.0699  -2.0641  -2.0630  -2.0258
    -1.9925  -1.9922  -1.9570  -1.9402  -1.9398  -1.9312  -1.9280  -1.9062
    -1.9050  -1.8931  -1.8899  -1.8879  -1.8876  -1.8868  -1.8841  -1.8526
    -1.8523  -1.8521  -1.8067  -1.8064  -1.7674  -1.7657  -1.7191  -1.7190
    -1.7062  -1.6843  -1.6793  -1.6761  -1.6612  -1.6589  -1.6423  -1.6403
    -1.6380  -1.6354  -1.6341  -1.6337  -1.6323  -1.6310  -1.6111  -1.6100
    -1.5981  -1.5829  -1.5649  -1.5649  -1.5396  -1.5371  -1.5338  -1.5336
    -1.5316  -1.5266  -1.5068  -1.5047  -1.4910  -1.4905  -1.4779  -1.4683
    -1.4546  -1.4537  -1.4243  -1.4233  -1.4153  -1.4144  -1.3802  -1.3788
    -1.3712  -1.3704  -1.3626  -1.3623  -1.3410  -1.3398  -1.3291  -1.3227
    -1.3212  -1.3111  -1.3091  -1.3074  -1.3071  -1.2935  -1.2850  -1.2823
    -1.2745  -1.2743  -1.2652  -1.2579  -1.2573  -1.2513  -1.2167  -1.2116
    -1.2048  -1.2037  -1.2018  -1.2007  -1.1909  -1.1628  -1.1454  -1.1444
    -1.1440  -1.1432  -1.1409  -1.1350  -1.1336  -1.1218  -1.1193  -1.0833
    -1.0826  -1.0759  -1.0752  -1.0532  -1.0528  -1.0431  -1.0140  -1.0056
    -0.9791  -0.9777  -0.9504  -0.9500  -0.9474  -0.9470  -0.9445  -0.9405
    -0.9360  -0.9359  -0.9317  -0.9309  -0.8993  -0.8992  -0.8814  -0.8775
    -0.8755  -0.8751  -0.8732  -0.8727  -0.8551  -0.5808  -0.5677  -0.5120
    -0.5090  -0.4736  -0.3122  -0.2477  -0.2474  -0.2135   0.0707   0.0727
     0.4023   0.4038   0.5000   0.5006   0.5418   0.5422   0.6847   0.6878
     0.8088   0.8113   0.9011   1.4967   1.5143   1.5148   1.5505   1.5608
     1.6063   1.6086   1.6846   1.6859   1.8915   1.8921   2.1275   2.2064
     2.2080   2.2234   2.6051   2.6055   2.6769   2.6781   2.6847   2.6856
     2.8364   2.8365   2.8900   2.9812   2.9845   3.2133   3.2147   3.3458
     3.3732   3.3738   3.6454   3.6477   3.7527   3.7768   3.7774   3.8588
     3.8624   3.9632   3.9651   4.1999   4.2020   4.2882   4.2937   4.4114
     4.4185   4.4315   4.4399   4.6014   5.2170   5.2470   5.3271   5.3477
     5.3521   5.5255   5.5266   5.5742   5.6331   5.6397   5.6476   5.6946
     5.6949   5.7030   5.7097   5.7413   5.9838   6.0090   6.0248   6.0306
     6.0371   6.0377   6.0436   6.0479   6.1081   6.1291   6.1689   6.1711

          k = 0.2500 0.2500-0.2500 (167588 PWs)   bands (ev):

   -19.1961  -7.0209  -6.9289  -6.4006  -6.3998  -5.9706  -5.5627  -5.4687
    -5.4680  -5.2722  -5.2722  -5.1564  -5.1540  -5.0758  -5.0534  -4.9800
    -4.8951  -4.8911  -4.8527  -4.8519  -4.6919  -4.6752  -4.6735  -4.6732
    -4.6660  -4.6109  -4.6106  -4.5990  -4.5986  -4.5617  -4.5506  -4.5488
    -4.5072  -4.5068  -4.4735  -4.4722  -4.4211  -4.4199  -4.4104  -4.4084
    -4.4027  -4.3898  -4.3895  -4.3496  -4.3304  -4.3304  -4.3230  -4.3230
    -4.2917  -4.2428  -4.2261  -4.2258  -4.2245  -4.2217  -4.2144  -4.2087
    -4.2084  -4.2079  -4.1445  -4.1425  -4.0954  -4.0929  -4.0808  -4.0553
    -4.0544  -4.0366  -4.0319  -4.0311  -4.0271  -4.0245  -3.9756  -3.9756
    -3.9627  -3.9622  -3.8594  -3.8568  -3.8522  -3.8504  -3.8136  -3.8066
    -3.7892  -3.7610  -3.7603  -3.7322  -3.7311  -3.7109  -3.7094  -3.6967
    -3.6956  -3.6413  -3.6407  -3.6246  -3.6065  -3.5962  -3.5943  -3.5936
    -3.5926  -3.5664  -3.5651  -3.5317  -3.5291  -3.5077  -3.5063  -3.4741
    -3.4730  -3.4555  -3.4281  -3.4279  -3.3916  -3.3898  -3.3727  -3.3507
    -3.3463  -3.3436  -3.3319  -3.3304  -3.3267  -3.3132  -3.2899  -3.2769
    -3.2378  -3.2358  -3.2291  -3.2197  -3.2187  -3.2124  -3.1937  -3.1935
    -3.1725  -3.1715  -3.1710  -3.1448  -3.1447  -3.1371  -3.1347  -3.1323
    -3.0978  -3.0945  -3.0589  -3.0583  -3.0567  -3.0551  -3.0544  -2.9753
    -2.9654  -2.9616  -2.9607  -2.9601  -2.9590  -2.9545  -2.9538  -2.9535
    -2.9534  -2.9441  -2.9363  -2.9199  -2.9168  -2.9156  -2.9115  -2.9010
    -2.8973  -2.8585  -2.8576  -2.8574  -2.8530  -2.8526  -2.8350  -2.8347
    -2.8264  -2.8261  -2.8235  -2.7646  -2.7644  -2.7588  -2.7586  -2.7544
    -2.7516  -2.7250  -2.6664  -2.6654  -2.6648  -2.6625  -2.6516  -2.6497
    -2.6436  -2.6343  -2.6335  -2.5977  -2.5964  -2.5886  -2.5883  -2.5868
    -2.5863  -2.5478  -2.5472  -2.5376  -2.5372  -2.5355  -2.5349  -2.4921
    -2.4753  -2.4727  -2.4187  -2.4180  -2.4007  -2.3990  -2.3929  -2.3919
    -2.3450  -2.3434  -2.3207  -2.3056  -2.2915  -2.2895  -2.2882  -2.2672
    -2.2667  -2.2572  -2.2391  -2.2021  -2.2004  -2.1870  -2.1843  -2.1840
    -2.1753  -2.1738  -2.1613  -2.1583  -2.1570  -2.1541  -2.1494  -2.1481
    -2.1473  -2.1371  -2.1362  -2.1185  -2.1179  -2.1160  -2.1101  -2.1072
    -2.1063  -2.0838  -2.0827  -2.0712  -2.0699  -2.0641  -2.0630  -2.0258
    -1.9925  -1.9922  -1.9570  -1.9402  -1.9398  -1.9311  -1.9280  -1.9062
    -1.9050  -1.8931  -1.8899  -1.8879  -1.8876  -1.8868  -1.8841  -1.8526
    -1.8523  -1.8521  -1.8067  -1.8064  -1.7675  -1.7657  -1.7191  -1.7190
    -1.7062  -1.6843  -1.6793  -1.6761  -1.6612  -1.6589  -1.6423  -1.6403
    -1.6380  -1.6354  -1.6341  -1.6337  -1.6323  -1.6310  -1.6111  -1.6100
    -1.5981  -1.5829  -1.5649  -1.5649  -1.5396  -1.5371  -1.5338  -1.5335
    -1.5316  -1.5266  -1.5068  -1.5047  -1.4910  -1.4905  -1.4779  -1.4683
    -1.4546  -1.4537  -1.4243  -1.4233  -1.4153  -1.4144  -1.3802  -1.3788
    -1.3712  -1.3704  -1.3626  -1.3623  -1.3409  -1.3398  -1.3291  -1.3227
    -1.3212  -1.3111  -1.3091  -1.3074  -1.3071  -1.2935  -1.2850  -1.2823
    -1.2745  -1.2743  -1.2652  -1.2579  -1.2573  -1.2513  -1.2167  -1.2116
    -1.2048  -1.2037  -1.2018  -1.2007  -1.1909  -1.1628  -1.1454  -1.1443
    -1.1440  -1.1432  -1.1409  -1.1350  -1.1336  -1.1218  -1.1193  -1.0833
    -1.0826  -1.0759  -1.0752  -1.0532  -1.0528  -1.0431  -1.0140  -1.0056
    -0.9790  -0.9777  -0.9504  -0.9500  -0.9474  -0.9471  -0.9445  -0.9405
    -0.9360  -0.9359  -0.9317  -0.9309  -0.8993  -0.8992  -0.8814  -0.8775
    -0.8755  -0.8751  -0.8732  -0.8727  -0.8551  -0.5808  -0.5677  -0.5120
    -0.5090  -0.4736  -0.3122  -0.2477  -0.2474  -0.2135   0.0707   0.0727
     0.4023   0.4038   0.5000   0.5006   0.5418   0.5422   0.6847   0.6879
     0.8088   0.8113   0.9011   1.4967   1.5143   1.5148   1.5505   1.5608
     1.6063   1.6086   1.6846   1.6859   1.8915   1.8921   2.1275   2.2064
     2.2080   2.2234   2.6051   2.6055   2.6769   2.6781   2.6847   2.6856
     2.8364   2.8365   2.8900   2.9812   2.9845   3.2133   3.2147   3.3458
     3.3732   3.3738   3.6454   3.6477   3.7527   3.7768   3.7774   3.8589
     3.8624   3.9632   3.9651   4.1999   4.2020   4.2882   4.2937   4.4114
     4.4185   4.4315   4.4399   4.6015   5.2144   5.2471   5.3107   5.3477
     5.3516   5.5255   5.5266   5.5753   5.6332   5.6430   5.6579   5.6881
     5.6947   5.6950   5.7412   5.7608   5.9838   6.0091   6.0250   6.0311
     6.0371   6.0377   6.0437   6.0479   6.1140   6.1286   6.1609   6.2612

          k =-0.2500-0.2500 0.0833 (167653 PWs)   bands (ev):

   -19.1961  -7.0209  -6.9289  -6.4006  -6.3998  -5.9706  -5.5627  -5.4687
    -5.4680  -5.2722  -5.2722  -5.1564  -5.1540  -5.0758  -5.0534  -4.9800
    -4.8951  -4.8911  -4.8527  -4.8519  -4.6919  -4.6752  -4.6735  -4.6732
    -4.6660  -4.6109  -4.6106  -4.5990  -4.5986  -4.5617  -4.5506  -4.5488
    -4.5072  -4.5068  -4.4735  -4.4722  -4.4211  -4.4199  -4.4104  -4.4084
    -4.4027  -4.3898  -4.3895  -4.3496  -4.3304  -4.3304  -4.3230  -4.3230
    -4.2917  -4.2428  -4.2261  -4.2258  -4.2245  -4.2217  -4.2144  -4.2087
    -4.2084  -4.2079  -4.1445  -4.1425  -4.0954  -4.0929  -4.0808  -4.0553
    -4.0544  -4.0366  -4.0319  -4.0311  -4.0271  -4.0245  -3.9756  -3.9756
    -3.9627  -3.9622  -3.8594  -3.8568  -3.8522  -3.8504  -3.8136  -3.8066
    -3.7892  -3.7610  -3.7603  -3.7322  -3.7311  -3.7109  -3.7094  -3.6967
    -3.6957  -3.6413  -3.6407  -3.6246  -3.6065  -3.5962  -3.5943  -3.5936
    -3.5926  -3.5664  -3.5651  -3.5317  -3.5291  -3.5077  -3.5063  -3.4741
    -3.4730  -3.4554  -3.4281  -3.4279  -3.3916  -3.3898  -3.3727  -3.3507
    -3.3463  -3.3436  -3.3319  -3.3304  -3.3267  -3.3132  -3.2899  -3.2769
    -3.2378  -3.2358  -3.2291  -3.2197  -3.2187  -3.2124  -3.1937  -3.1935
    -3.1725  -3.1715  -3.1710  -3.1448  -3.1448  -3.1372  -3.1347  -3.1323
    -3.0978  -3.0945  -3.0589  -3.0582  -3.0567  -3.0551  -3.0544  -2.9753
    -2.9654  -2.9616  -2.9607  -2.9600  -2.9590  -2.9545  -2.9538  -2.9536
    -2.9534  -2.9441  -2.9363  -2.9199  -2.9168  -2.9156  -2.9115  -2.9010
    -2.8973  -2.8585  -2.8576  -2.8574  -2.8530  -2.8526  -2.8350  -2.8347
    -2.8264  -2.8261  -2.8235  -2.7646  -2.7644  -2.7588  -2.7586  -2.7544
    -2.7516  -2.7250  -2.6664  -2.6654  -2.6648  -2.6625  -2.6515  -2.6497
    -2.6436  -2.6343  -2.6335  -2.5977  -2.5965  -2.5886  -2.5883  -2.5868
    -2.5863  -2.5478  -2.5472  -2.5376  -2.5372  -2.5355  -2.5349  -2.4921
    -2.4753  -2.4727  -2.4187  -2.4180  -2.4007  -2.3990  -2.3929  -2.3919
    -2.3450  -2.3434  -2.3207  -2.3056  -2.2915  -2.2895  -2.2882  -2.2672
    -2.2667  -2.2572  -2.2391  -2.2021  -2.2004  -2.1870  -2.1843  -2.1840
    -2.1753  -2.1738  -2.1613  -2.1583  -2.1570  -2.1541  -2.1494  -2.1481
    -2.1473  -2.1371  -2.1362  -2.1185  -2.1179  -2.1160  -2.1101  -2.1073
    -2.1063  -2.0838  -2.0827  -2.0712  -2.0699  -2.0641  -2.0630  -2.0258
    -1.9925  -1.9922  -1.9570  -1.9402  -1.9398  -1.9312  -1.9280  -1.9062
    -1.9050  -1.8931  -1.8899  -1.8879  -1.8876  -1.8868  -1.8841  -1.8526
    -1.8523  -1.8521  -1.8067  -1.8064  -1.7674  -1.7657  -1.7191  -1.7190
    -1.7062  -1.6843  -1.6793  -1.6761  -1.6612  -1.6589  -1.6423  -1.6403
    -1.6380  -1.6354  -1.6341  -1.6337  -1.6323  -1.6310  -1.6111  -1.6100
    -1.5981  -1.5829  -1.5649  -1.5649  -1.5396  -1.5371  -1.5338  -1.5336
    -1.5316  -1.5266  -1.5068  -1.5047  -1.4910  -1.4905  -1.4779  -1.4683
    -1.4546  -1.4537  -1.4243  -1.4233  -1.4153  -1.4144  -1.3802  -1.3788
    -1.3712  -1.3704  -1.3626  -1.3623  -1.3410  -1.3398  -1.3291  -1.3227
    -1.3212  -1.3111  -1.3091  -1.3074  -1.3071  -1.2935  -1.2850  -1.2823
    -1.2745  -1.2743  -1.2652  -1.2579  -1.2573  -1.2513  -1.2167  -1.2116
    -1.2048  -1.2037  -1.2018  -1.2007  -1.1909  -1.1628  -1.1454  -1.1444
    -1.1440  -1.1432  -1.1409  -1.1350  -1.1336  -1.1218  -1.1193  -1.0833
    -1.0826  -1.0759  -1.0752  -1.0532  -1.0528  -1.0431  -1.0140  -1.0056
    -0.9791  -0.9777  -0.9504  -0.9500  -0.9474  -0.9470  -0.9445  -0.9405
    -0.9360  -0.9359  -0.9317  -0.9309  -0.8993  -0.8992  -0.8814  -0.8775
    -0.8755  -0.8751  -0.8732  -0.8727  -0.8551  -0.5808  -0.5677  -0.5120
    -0.5090  -0.4736  -0.3122  -0.2477  -0.2474  -0.2135   0.0707   0.0727
     0.4023   0.4038   0.5000   0.5006   0.5418   0.5422   0.6847   0.6878
     0.8088   0.8113   0.9011   1.4967   1.5143   1.5148   1.5505   1.5608
     1.6063   1.6086   1.6846   1.6859   1.8915   1.8921   2.1275   2.2064
     2.2080   2.2234   2.6051   2.6055   2.6769   2.6781   2.6847   2.6856
     2.8364   2.8365   2.8900   2.9812   2.9845   3.2133   3.2147   3.3458
     3.3732   3.3738   3.6454   3.6477   3.7527   3.7768   3.7774   3.8588
     3.8624   3.9632   3.9651   4.1999   4.2020   4.2882   4.2937   4.4114
     4.4185   4.4315   4.4399   4.6014   5.2170   5.2470   5.3271   5.3477
     5.3521   5.5255   5.5266   5.5742   5.6331   5.6397   5.6476   5.6946
     5.6949   5.7029   5.7098   5.7413   5.9838   6.0090   6.0248   6.0306
     6.0371   6.0377   6.0436   6.0479   6.1081   6.1291   6.1689   6.1711

          k =-0.2500 0.2500-0.0833 (167653 PWs)   bands (ev):

   -19.1961  -7.0209  -6.9289  -6.4014  -6.3990  -5.9706  -5.5626  -5.4695
    -5.4672  -5.2723  -5.2721  -5.1578  -5.1529  -5.0758  -5.0531  -4.9799
    -4.8951  -4.8912  -4.8532  -4.8518  -4.6917  -4.6753  -4.6742  -4.6726
    -4.6660  -4.6109  -4.6106  -4.5996  -4.5979  -4.5618  -4.5513  -4.5478
    -4.5074  -4.5066  -4.4736  -4.4721  -4.4224  -4.4191  -4.4101  -4.4085
    -4.4026  -4.3899  -4.3895  -4.3492  -4.3308  -4.3300  -4.3233  -4.3226
    -4.2912  -4.2421  -4.2273  -4.2261  -4.2252  -4.2211  -4.2144  -4.2090
    -4.2084  -4.2077  -4.1463  -4.1415  -4.0955  -4.0920  -4.0807  -4.0560
    -4.0542  -4.0374  -4.0317  -4.0313  -4.0270  -4.0245  -3.9756  -3.9755
    -3.9632  -3.9616  -3.8594  -3.8559  -3.8532  -3.8495  -3.8136  -3.8066
    -3.7892  -3.7610  -3.7604  -3.7328  -3.7303  -3.7114  -3.7091  -3.6972
    -3.6947  -3.6417  -3.6403  -3.6240  -3.6067  -3.5961  -3.5948  -3.5932
    -3.5928  -3.5669  -3.5650  -3.5321  -3.5291  -3.5081  -3.5058  -3.4744
    -3.4725  -3.4556  -3.4281  -3.4275  -3.3911  -3.3893  -3.3728  -3.3514
    -3.3462  -3.3432  -3.3315  -3.3312  -3.3265  -3.3141  -3.2899  -3.2767
    -3.2378  -3.2357  -3.2291  -3.2194  -3.2188  -3.2129  -3.1937  -3.1932
    -3.1725  -3.1720  -3.1704  -3.1448  -3.1445  -3.1372  -3.1348  -3.1320
    -3.0978  -3.0949  -3.0592  -3.0576  -3.0574  -3.0552  -3.0543  -2.9752
    -2.9654  -2.9628  -2.9605  -2.9598  -2.9586  -2.9544  -2.9538  -2.9538
    -2.9534  -2.9441  -2.9363  -2.9199  -2.9168  -2.9152  -2.9122  -2.9010
    -2.8971  -2.8585  -2.8577  -2.8575  -2.8537  -2.8521  -2.8355  -2.8341
    -2.8264  -2.8258  -2.8236  -2.7648  -2.7643  -2.7589  -2.7588  -2.7543
    -2.7514  -2.7251  -2.6664  -2.6653  -2.6647  -2.6625  -2.6515  -2.6496
    -2.6433  -2.6348  -2.6331  -2.5983  -2.5951  -2.5894  -2.5888  -2.5861
    -2.5857  -2.5477  -2.5465  -2.5375  -2.5371  -2.5361  -2.5344  -2.4921
    -2.4758  -2.4727  -2.4193  -2.4176  -2.4011  -2.3987  -2.3930  -2.3918
    -2.3463  -2.3423  -2.3205  -2.3063  -2.2911  -2.2896  -2.2881  -2.2676
    -2.2664  -2.2572  -2.2392  -2.2049  -2.1995  -2.1874  -2.1837  -2.1836
    -2.1756  -2.1733  -2.1629  -2.1581  -2.1580  -2.1537  -2.1499  -2.1474
    -2.1464  -2.1376  -2.1353  -2.1188  -2.1176  -2.1162  -2.1101  -2.1077
    -2.1058  -2.0843  -2.0819  -2.0711  -2.0700  -2.0638  -2.0634  -2.0258
    -1.9931  -1.9914  -1.9569  -1.9407  -1.9393  -1.9317  -1.9272  -1.9062
    -1.9046  -1.8937  -1.8893  -1.8884  -1.8880  -1.8877  -1.8833  -1.8528
    -1.8524  -1.8517  -1.8069  -1.8058  -1.7684  -1.7647  -1.7191  -1.7187
    -1.7061  -1.6841  -1.6791  -1.6760  -1.6609  -1.6593  -1.6433  -1.6392
    -1.6377  -1.6349  -1.6346  -1.6335  -1.6324  -1.6314  -1.6116  -1.6094
    -1.5983  -1.5830  -1.5647  -1.5647  -1.5391  -1.5367  -1.5348  -1.5329
    -1.5288  -1.5281  -1.5079  -1.5048  -1.4904  -1.4901  -1.4779  -1.4683
    -1.4555  -1.4529  -1.4245  -1.4225  -1.4161  -1.4141  -1.3809  -1.3790
    -1.3715  -1.3698  -1.3629  -1.3625  -1.3416  -1.3395  -1.3290  -1.3228
    -1.3211  -1.3108  -1.3081  -1.3077  -1.3063  -1.2937  -1.2844  -1.2830
    -1.2749  -1.2745  -1.2641  -1.2619  -1.2584  -1.2509  -1.2209  -1.2095
    -1.2063  -1.2058  -1.2025  -1.2008  -1.1889  -1.1624  -1.1465  -1.1442
    -1.1440  -1.1426  -1.1390  -1.1350  -1.1265  -1.1222  -1.1185  -1.0842
    -1.0820  -1.0758  -1.0756  -1.0536  -1.0524  -1.0430  -1.0135  -1.0056
    -0.9796  -0.9771  -0.9506  -0.9504  -0.9473  -0.9468  -0.9444  -0.9406
    -0.9365  -0.9360  -0.9328  -0.9305  -0.9000  -0.8984  -0.8807  -0.8783
    -0.8766  -0.8744  -0.8736  -0.8712  -0.8550  -0.5809  -0.5677  -0.5120
    -0.5081  -0.4737  -0.3138  -0.2493  -0.2465  -0.2143   0.0710   0.0729
     0.4002   0.4057   0.4992   0.5011   0.5389   0.5438   0.6836   0.6892
     0.8088   0.8116   0.9014   1.4964   1.5141   1.5158   1.5536   1.5607
     1.6001   1.6137   1.6826   1.6878   1.8899   1.8936   2.1293   2.2032
     2.2117   2.2231   2.6001   2.6118   2.6771   2.6783   2.6833   2.6866
     2.8353   2.8376   2.8887   2.9748   2.9869   3.2081   3.2142   3.3460
     3.3714   3.3767   3.6408   3.6498   3.7604   3.7769   3.7782   3.8409
     3.8763   3.9592   3.9670   4.1975   4.2031   4.2885   4.2945   4.4150
     4.4153   4.4354   4.4468   4.6098   5.2106   5.2661   5.3072   5.3509
     5.3513   5.5181   5.5292   5.5677   5.6196   5.6432   5.6450   5.6844
     5.6937   5.6965   5.7313   5.7365   5.9735   6.0112   6.0223   6.0256
     6.0343   6.0406   6.0471   6.0479   6.1122   6.1421   6.1467   6.1870

          k = 0.2500-0.2500-0.0833 (167653 PWs)   bands (ev):

   -19.1961  -7.0209  -6.9289  -6.4014  -6.3990  -5.9706  -5.5626  -5.4695
    -5.4672  -5.2723  -5.2721  -5.1578  -5.1529  -5.0758  -5.0531  -4.9799
    -4.8951  -4.8912  -4.8532  -4.8518  -4.6917  -4.6753  -4.6742  -4.6726
    -4.6660  -4.6109  -4.6106  -4.5996  -4.5979  -4.5618  -4.5513  -4.5478
    -4.5074  -4.5066  -4.4736  -4.4721  -4.4224  -4.4191  -4.4101  -4.4085
    -4.4026  -4.3899  -4.3895  -4.3492  -4.3308  -4.3300  -4.3233  -4.3226
    -4.2912  -4.2421  -4.2273  -4.2261  -4.2252  -4.2211  -4.2144  -4.2090
    -4.2084  -4.2077  -4.1463  -4.1415  -4.0955  -4.0920  -4.0807  -4.0560
    -4.0542  -4.0374  -4.0317  -4.0313  -4.0270  -4.0245  -3.9756  -3.9755
    -3.9632  -3.9616  -3.8594  -3.8559  -3.8532  -3.8495  -3.8136  -3.8066
    -3.7892  -3.7610  -3.7604  -3.7328  -3.7303  -3.7114  -3.7091  -3.6972
    -3.6947  -3.6417  -3.6403  -3.6240  -3.6067  -3.5961  -3.5948  -3.5932
    -3.5928  -3.5669  -3.5650  -3.5321  -3.5291  -3.5081  -3.5058  -3.4744
    -3.4725  -3.4556  -3.4281  -3.4275  -3.3911  -3.3893  -3.3728  -3.3514
    -3.3462  -3.3432  -3.3315  -3.3312  -3.3265  -3.3141  -3.2899  -3.2767
    -3.2378  -3.2357  -3.2291  -3.2194  -3.2188  -3.2129  -3.1937  -3.1932
    -3.1725  -3.1720  -3.1704  -3.1448  -3.1445  -3.1372  -3.1348  -3.1320
    -3.0978  -3.0949  -3.0592  -3.0576  -3.0574  -3.0552  -3.0543  -2.9752
    -2.9654  -2.9628  -2.9605  -2.9598  -2.9586  -2.9544  -2.9538  -2.9538
    -2.9534  -2.9441  -2.9363  -2.9199  -2.9168  -2.9152  -2.9122  -2.9010
    -2.8971  -2.8585  -2.8577  -2.8575  -2.8537  -2.8521  -2.8355  -2.8341
    -2.8264  -2.8258  -2.8236  -2.7648  -2.7643  -2.7589  -2.7588  -2.7543
    -2.7514  -2.7251  -2.6664  -2.6653  -2.6647  -2.6625  -2.6515  -2.6496
    -2.6433  -2.6348  -2.6331  -2.5983  -2.5951  -2.5894  -2.5888  -2.5861
    -2.5857  -2.5477  -2.5465  -2.5375  -2.5371  -2.5361  -2.5344  -2.4921
    -2.4758  -2.4727  -2.4193  -2.4176  -2.4011  -2.3987  -2.3930  -2.3918
    -2.3463  -2.3423  -2.3205  -2.3063  -2.2911  -2.2896  -2.2881  -2.2676
    -2.2664  -2.2572  -2.2392  -2.2049  -2.1995  -2.1874  -2.1837  -2.1836
    -2.1756  -2.1733  -2.1629  -2.1581  -2.1580  -2.1537  -2.1499  -2.1474
    -2.1464  -2.1376  -2.1353  -2.1188  -2.1176  -2.1162  -2.1101  -2.1077
    -2.1058  -2.0843  -2.0819  -2.0711  -2.0700  -2.0638  -2.0634  -2.0258
    -1.9931  -1.9914  -1.9569  -1.9407  -1.9393  -1.9317  -1.9272  -1.9062
    -1.9046  -1.8937  -1.8893  -1.8884  -1.8880  -1.8877  -1.8833  -1.8528
    -1.8524  -1.8517  -1.8069  -1.8058  -1.7684  -1.7647  -1.7191  -1.7187
    -1.7061  -1.6841  -1.6791  -1.6760  -1.6609  -1.6593  -1.6433  -1.6392
    -1.6377  -1.6349  -1.6346  -1.6335  -1.6324  -1.6314  -1.6116  -1.6094
    -1.5983  -1.5830  -1.5647  -1.5647  -1.5391  -1.5367  -1.5348  -1.5329
    -1.5288  -1.5281  -1.5079  -1.5048  -1.4904  -1.4901  -1.4779  -1.4683
    -1.4555  -1.4529  -1.4245  -1.4225  -1.4161  -1.4141  -1.3809  -1.3790
    -1.3715  -1.3698  -1.3629  -1.3625  -1.3416  -1.3395  -1.3290  -1.3228
    -1.3211  -1.3108  -1.3081  -1.3077  -1.3063  -1.2937  -1.2844  -1.2830
    -1.2749  -1.2745  -1.2641  -1.2619  -1.2584  -1.2509  -1.2209  -1.2095
    -1.2063  -1.2058  -1.2025  -1.2008  -1.1889  -1.1624  -1.1465  -1.1442
    -1.1440  -1.1426  -1.1390  -1.1350  -1.1265  -1.1222  -1.1185  -1.0842
    -1.0820  -1.0758  -1.0756  -1.0536  -1.0524  -1.0430  -1.0135  -1.0056
    -0.9796  -0.9771  -0.9506  -0.9504  -0.9473  -0.9468  -0.9444  -0.9406
    -0.9365  -0.9360  -0.9328  -0.9305  -0.9000  -0.8984  -0.8807  -0.8783
    -0.8766  -0.8744  -0.8736  -0.8712  -0.8550  -0.5809  -0.5677  -0.5120
    -0.5081  -0.4737  -0.3138  -0.2493  -0.2465  -0.2143   0.0710   0.0729
     0.4002   0.4057   0.4992   0.5011   0.5389   0.5438   0.6836   0.6892
     0.8088   0.8116   0.9014   1.4964   1.5141   1.5158   1.5536   1.5607
     1.6001   1.6137   1.6826   1.6878   1.8899   1.8936   2.1293   2.2032
     2.2117   2.2231   2.6001   2.6118   2.6771   2.6783   2.6833   2.6866
     2.8353   2.8376   2.8887   2.9748   2.9869   3.2081   3.2142   3.3460
     3.3714   3.3767   3.6408   3.6498   3.7604   3.7769   3.7782   3.8409
     3.8763   3.9592   3.9670   4.1975   4.2031   4.2885   4.2945   4.4150
     4.4153   4.4354   4.4468   4.6098   5.2106   5.2661   5.3072   5.3509
     5.3513   5.5181   5.5292   5.5677   5.6197   5.6432   5.6450   5.6843
     5.6936   5.6965   5.7313   5.7366   5.9735   6.0112   6.0223   6.0256
     6.0343   6.0406   6.0471   6.0479   6.1122   6.1421   6.1467   6.1870

          k =-0.2500 0.2500 0.2500 (167588 PWs)   bands (ev):

   -19.1961  -7.0209  -6.9289  -6.4014  -6.3990  -5.9706  -5.5626  -5.4695
    -5.4672  -5.2723  -5.2721  -5.1578  -5.1529  -5.0758  -5.0532  -4.9799
    -4.8951  -4.8912  -4.8532  -4.8518  -4.6917  -4.6753  -4.6741  -4.6726
    -4.6660  -4.6109  -4.6106  -4.5996  -4.5979  -4.5618  -4.5513  -4.5478
    -4.5074  -4.5066  -4.4736  -4.4722  -4.4224  -4.4191  -4.4101  -4.4085
    -4.4026  -4.3899  -4.3895  -4.3492  -4.3308  -4.3300  -4.3233  -4.3226
    -4.2912  -4.2421  -4.2273  -4.2261  -4.2252  -4.2211  -4.2144  -4.2090
    -4.2084  -4.2077  -4.1463  -4.1415  -4.0955  -4.0920  -4.0807  -4.0560
    -4.0542  -4.0374  -4.0317  -4.0313  -4.0270  -4.0245  -3.9756  -3.9755
    -3.9631  -3.9616  -3.8594  -3.8559  -3.8533  -3.8495  -3.8135  -3.8066
    -3.7892  -3.7610  -3.7604  -3.7328  -3.7303  -3.7114  -3.7091  -3.6972
    -3.6947  -3.6417  -3.6403  -3.6240  -3.6067  -3.5961  -3.5948  -3.5932
    -3.5928  -3.5669  -3.5650  -3.5321  -3.5291  -3.5081  -3.5058  -3.4744
    -3.4725  -3.4556  -3.4281  -3.4275  -3.3911  -3.3893  -3.3728  -3.3514
    -3.3462  -3.3432  -3.3315  -3.3312  -3.3265  -3.3141  -3.2899  -3.2768
    -3.2378  -3.2357  -3.2291  -3.2194  -3.2188  -3.2129  -3.1937  -3.1932
    -3.1725  -3.1720  -3.1704  -3.1448  -3.1445  -3.1372  -3.1348  -3.1320
    -3.0978  -3.0949  -3.0592  -3.0576  -3.0574  -3.0552  -3.0543  -2.9752
    -2.9654  -2.9628  -2.9606  -2.9598  -2.9586  -2.9544  -2.9538  -2.9538
    -2.9534  -2.9441  -2.9363  -2.9199  -2.9168  -2.9152  -2.9122  -2.9010
    -2.8971  -2.8585  -2.8576  -2.8575  -2.8537  -2.8520  -2.8355  -2.8341
    -2.8264  -2.8258  -2.8236  -2.7648  -2.7643  -2.7588  -2.7588  -2.7543
    -2.7514  -2.7251  -2.6664  -2.6653  -2.6647  -2.6625  -2.6515  -2.6495
    -2.6433  -2.6348  -2.6331  -2.5983  -2.5951  -2.5894  -2.5888  -2.5861
    -2.5857  -2.5477  -2.5465  -2.5375  -2.5371  -2.5361  -2.5344  -2.4921
    -2.4757  -2.4727  -2.4193  -2.4176  -2.4011  -2.3987  -2.3930  -2.3918
    -2.3463  -2.3423  -2.3205  -2.3063  -2.2911  -2.2896  -2.2881  -2.2676
    -2.2664  -2.2572  -2.2392  -2.2049  -2.1995  -2.1874  -2.1837  -2.1836
    -2.1756  -2.1733  -2.1629  -2.1581  -2.1580  -2.1537  -2.1499  -2.1474
    -2.1464  -2.1376  -2.1353  -2.1188  -2.1176  -2.1162  -2.1102  -2.1077
    -2.1058  -2.0843  -2.0819  -2.0711  -2.0700  -2.0638  -2.0634  -2.0259
    -1.9931  -1.9914  -1.9569  -1.9407  -1.9393  -1.9317  -1.9272  -1.9062
    -1.9045  -1.8937  -1.8893  -1.8884  -1.8880  -1.8877  -1.8833  -1.8528
    -1.8524  -1.8517  -1.8069  -1.8058  -1.7684  -1.7647  -1.7191  -1.7188
    -1.7061  -1.6841  -1.6791  -1.6760  -1.6609  -1.6593  -1.6433  -1.6392
    -1.6377  -1.6349  -1.6346  -1.6335  -1.6324  -1.6314  -1.6116  -1.6094
    -1.5983  -1.5830  -1.5647  -1.5647  -1.5391  -1.5367  -1.5348  -1.5329
    -1.5288  -1.5281  -1.5079  -1.5048  -1.4904  -1.4901  -1.4779  -1.4684
    -1.4555  -1.4529  -1.4245  -1.4225  -1.4161  -1.4141  -1.3809  -1.3790
    -1.3715  -1.3698  -1.3629  -1.3625  -1.3416  -1.3395  -1.3290  -1.3228
    -1.3211  -1.3108  -1.3081  -1.3077  -1.3063  -1.2937  -1.2844  -1.2830
    -1.2749  -1.2745  -1.2641  -1.2619  -1.2584  -1.2509  -1.2209  -1.2095
    -1.2063  -1.2058  -1.2025  -1.2009  -1.1889  -1.1624  -1.1465  -1.1442
    -1.1440  -1.1426  -1.1390  -1.1350  -1.1265  -1.1222  -1.1185  -1.0842
    -1.0820  -1.0758  -1.0756  -1.0536  -1.0524  -1.0430  -1.0135  -1.0056
    -0.9796  -0.9771  -0.9506  -0.9504  -0.9473  -0.9468  -0.9444  -0.9406
    -0.9365  -0.9360  -0.9328  -0.9305  -0.9000  -0.8984  -0.8807  -0.8783
    -0.8766  -0.8744  -0.8736  -0.8712  -0.8550  -0.5809  -0.5677  -0.5120
    -0.5081  -0.4737  -0.3138  -0.2493  -0.2465  -0.2143   0.0710   0.0729
     0.4002   0.4057   0.4992   0.5011   0.5389   0.5438   0.6836   0.6892
     0.8089   0.8116   0.9014   1.4964   1.5141   1.5158   1.5536   1.5607
     1.6001   1.6137   1.6826   1.6878   1.8899   1.8936   2.1293   2.2032
     2.2117   2.2231   2.6001   2.6118   2.6771   2.6783   2.6833   2.6866
     2.8353   2.8376   2.8887   2.9748   2.9869   3.2081   3.2142   3.3460
     3.3714   3.3767   3.6408   3.6498   3.7604   3.7769   3.7782   3.8409
     3.8763   3.9592   3.9670   4.1975   4.2031   4.2885   4.2945   4.4150
     4.4153   4.4354   4.4468   4.6099   5.2086   5.2662   5.2954   5.3457
     5.3510   5.5181   5.5291   5.5666   5.6240   5.6439   5.6454   5.6846
     5.6965   5.7153   5.7363   5.7559   5.9755   6.0116   6.0224   6.0256
     6.0346   6.0406   6.0471   6.0479   6.1112   6.1442   6.1600   6.2370

     the Fermi energy is     0.7602 ev

!    total energy              =   -7425.29287842 Ry
     Harris-Foulkes estimate   =   -7425.29287841 Ry
     estimated scf accuracy    <          2.1E-09 Ry

     The total energy is the sum of the following terms:

     one-electron contribution =  -48679.27139866 Ry
     hartree contribution      =   24887.46281435 Ry
     xc contribution           =   -3604.21566642 Ry
     ewald contribution        =   19970.73409334 Ry
     smearing contrib. (-TS)   =      -0.00272102 Ry

     convergence has been achieved in  28 iterations

     Writing output data file 7604258.save

     init_run     :     86.80s CPU     92.38s WALL (       1 calls)
     electrons    :   5632.40s CPU   5998.14s WALL (       1 calls)

     Called by init_run:
     wfcinit      :     65.57s CPU     70.32s WALL (       1 calls)
     potinit      :      4.86s CPU      5.31s WALL (       1 calls)

     Called by electrons:
     c_bands      :   4695.26s CPU   4978.09s WALL (      29 calls)
     sum_band     :    644.16s CPU    706.80s WALL (      29 calls)
     v_of_rho     :     68.79s CPU     78.93s WALL (      29 calls)
     newd         :    230.25s CPU    233.87s WALL (      29 calls)
     mix_rho      :      2.13s CPU      2.48s WALL (      29 calls)
     vdW_energy   :      8.14s CPU      8.74s WALL (      29 calls)
     vdW_ffts     :     29.87s CPU     35.11s WALL (      58 calls)
     vdW_v        :      7.89s CPU      8.71s WALL (      29 calls)

     Called by c_bands:
     init_us_2    :     10.09s CPU     10.45s WALL (     354 calls)
     cegterg      :   4618.59s CPU   4896.97s WALL (     174 calls)

     Called by *egterg:
     h_psi        :   1793.70s CPU   2040.35s WALL (     855 calls)
     s_psi        :    356.46s CPU    358.00s WALL (     855 calls)
     g_psi        :      4.56s CPU      4.62s WALL (     675 calls)
     cdiaghg      :   1415.93s CPU   1418.04s WALL (     843 calls)

     Called by h_psi:
     add_vuspsi   :    355.38s CPU    356.95s WALL (     855 calls)

     General routines
     calbec       :    503.96s CPU    505.22s WALL (    1029 calls)
     fft          :     58.12s CPU     67.49s WALL (    1914 calls)
     ffts         :      0.76s CPU      1.07s WALL (      58 calls)
     fftw         :   1167.39s CPU   1436.54s WALL (  468578 calls)
     interpolate  :      2.56s CPU      3.27s WALL (      58 calls)
     davcio       :      0.01s CPU      0.17s WALL (       6 calls)

     Parallel routines
     fft_scatter  :    706.26s CPU    887.93s WALL (  470550 calls)

     PWSCF        :     1h35m CPU        1h42m WALL


   This run was terminated on:  16:35:31  24Jun2015            

=------------------------------------------------------------------------------=
   JOB DONE.
=------------------------------------------------------------------------------=
