Setting SGE environment for SCC

     Program PWSCF v.5.1.2 starts on 29Jun2015 at 23:10:42 

     This program is part of the open-source Quantum ESPRESSO suite
     for quantum simulation of materials; please cite
         "P. Giannozzi et al., J. Phys.:Condens. Matter 21 395502 (2009);
          URL http://www.quantum-espresso.org", 
     in publications or presentations arising from this work. More details at
     http://www.quantum-espresso.org/quote

     Parallel version (MPI), running on    32 processors
     R & G space division:  proc/nbgrp/npool/nimage =      32
     Reading input from top.H2.Au62.d.1.9.phi.45.psi.0.in
Warning: card &IONS ignored
Warning: card / ignored
Warning: card &CELL ignored
Warning: card / ignored

     Current dimensions of program PWSCF are:
     Max number of different atomic species (ntypx) = 10
     Max number of k-points (npk) =  40000
     Max angular momentum in pseudopotentials (lmaxx) =  3

     IMPORTANT: XC functional enforced from input :
     Exchange-correlation      = VDW-DF ( 1  4  4  0 1 0)
     Any further DFT definition will be discarded
     Please, verify this is what you really want


     Subspace diagonalization in iterative solution of the eigenvalue problem:
     a serial algorithm will be used


     Parallelization info
     --------------------
     sticks:   dense  smooth     PW     G-vecs:    dense   smooth      PW
     Min         578     289     74               118518    41891    5486
     Max         579     290     75               118533    41932    5497
     Sum       18505    9265   2385              3792731  1341081  175711


     Title: 
     top.H2.Au62.d.1.9.phi.45.psi.0                                             


     bravais-lattice index     =            8
     lattice parameter (alat)  =      24.1233  a.u.
     unit-cell volume          =   28076.2361 (a.u.)^3
     number of atoms/cell      =           75
     number of atomic types    =            3
     number of electrons       =       800.00
     number of Kohn-Sham states=          480
     kinetic-energy cutoff     =      50.0000  Ry
     charge density cutoff     =     400.0000  Ry
     convergence threshold     =      1.0E-08
     mixing beta               =       0.7000
     number of iterations used =            8  plain     mixing
     Exchange-correlation      = VDW-DF ( 1  4  4  0 1 0)

     celldm(1)=  24.123277  celldm(2)=   1.000000  celldm(3)=   2.000000
     celldm(4)=   0.000000  celldm(5)=   0.000000  celldm(6)=   0.000000

     crystal axes: (cart. coord. in units of alat)
               a(1) = (   1.000000   0.000000   0.000000 )  
               a(2) = (   0.000000   1.000000   0.000000 )  
               a(3) = (   0.000000   0.000000   2.000000 )  

     reciprocal axes: (cart. coord. in units 2 pi/alat)
               b(1) = (  1.000000  0.000000  0.000000 )  
               b(2) = (  0.000000  1.000000  0.000000 )  
               b(3) = (  0.000000  0.000000  0.500000 )  


     PseudoPot. # 1 for Au read from file:
     /home/scc/andrejb/qe/pseudo/Au.pbe-nd-van.UPF
     MD5 check sum: 458681b50f36d87ef23c61b04bba420a
     Pseudo is Ultrasoft + core correction, Zval = 11.0
     Generated by new atomic code, or converted to UPF format
     Using radial grid of  985 points,  3 beta functions with: 
                l(1) =   1
                l(2) =   2
                l(3) =   2
     Q(r) pseudized with  8 coefficients,  rinner =    1.100   1.100   1.100
                                                       1.100   1.100

     PseudoPot. # 2 for H  read from file:
     /home/scc/andrejb/qe/pseudo/H.pbe-van_ak.UPF
     MD5 check sum: 403db7282739603aa925980fa9b8608d
     Pseudo is Ultrasoft, Zval =  1.0
     Generated by new atomic code, or converted to UPF format
     Using radial grid of  615 points,  1 beta functions with: 
                l(1) =   0
     Q(r) pseudized with  8 coefficients,  rinner =    0.800

     PseudoPot. # 3 for O  read from file:
     /home/scc/andrejb/qe/pseudo/O.pbe-van_ak.UPF
     MD5 check sum: 4b8c549914a63cae506c6ff22b5af4fe
     Pseudo is Ultrasoft, Zval =  6.0
     Generated by new atomic code, or converted to UPF format
     Using radial grid of  737 points,  4 beta functions with: 
                l(1) =   0
                l(2) =   0
                l(3) =   1
                l(4) =   1
     Q(r) pseudized with  8 coefficients,  rinner =    0.800   0.800   0.800


     vdW kernel table read from file vdW_kernel_table
     MD5 check sum: 48e77a2e26edf626eeb0eaa751ad5cac

     atomic species   valence    mass     pseudopotential
        Au            11.00   196.96657     Au( 1.00)
        H              1.00     1.01000     H ( 1.00)
        O              6.00    16.00000     O ( 1.00)

     No symmetry found



   Cartesian axes

     site n.     atom                  positions (alat units)
         1           O   tau(   1) = (   0.5018890   0.3557659   0.7210128  )
         2           H   tau(   2) = (   0.4998324   0.3332216   0.6481573  )
         3           H   tau(   3) = (   0.4959856   0.2912036   0.7612035  )
         4           Au  tau(   4) = (   0.0000000   0.0000000   0.0000000  )
         5           Au  tau(   5) = (   0.3332217   0.0000000   0.0000000  )
         6           Au  tau(   6) = (   0.6664435   0.0000000   0.0000000  )
         7           Au  tau(   7) = (   0.1666109   0.1666109   0.0000000  )
         8           Au  tau(   8) = (   0.4998326   0.1666109   0.0000000  )
         9           Au  tau(   9) = (   0.8330542   0.1666109   0.0000000  )
        10           Au  tau(  10) = (   0.0000000   0.3332217   0.0000000  )
        11           Au  tau(  11) = (   0.3332217   0.3332217   0.0000000  )
        12           Au  tau(  12) = (   0.6664435   0.3332217   0.0000000  )
        13           Au  tau(  13) = (   0.1666109   0.4998326   0.0000000  )
        14           Au  tau(  14) = (   0.4998326   0.4998326   0.0000000  )
        15           Au  tau(  15) = (   0.8330542   0.4998326   0.0000000  )
        16           Au  tau(  16) = (   0.0000000   0.6664435   0.0000000  )
        17           Au  tau(  17) = (   0.3332217   0.6664435   0.0000000  )
        18           Au  tau(  18) = (   0.6664435   0.6664435   0.0000000  )
        19           Au  tau(  19) = (   0.1666109   0.8330542   0.0000000  )
        20           Au  tau(  20) = (   0.4998326   0.8330542   0.0000000  )
        21           Au  tau(  21) = (   0.8330542   0.8330542   0.0000000  )
        22           Au  tau(  22) = (   0.1666109   0.0000000   0.1666109  )
        23           Au  tau(  23) = (   0.4998326   0.0000000   0.1666109  )
        24           Au  tau(  24) = (   0.8330542   0.0000000   0.1666109  )
        25           Au  tau(  25) = (   0.0000000   0.1666109   0.1666109  )
        26           Au  tau(  26) = (   0.3332217   0.1666109   0.1666109  )
        27           Au  tau(  27) = (   0.6664435   0.1666109   0.1666109  )
        28           Au  tau(  28) = (   0.1666109   0.3332217   0.1666109  )
        29           Au  tau(  29) = (   0.4998326   0.3332217   0.1666109  )
        30           Au  tau(  30) = (   0.8330542   0.3332217   0.1666109  )
        31           Au  tau(  31) = (   0.0000000   0.4998326   0.1666109  )
        32           Au  tau(  32) = (   0.3332217   0.4998326   0.1666109  )
        33           Au  tau(  33) = (   0.6664435   0.4998326   0.1666109  )
        34           Au  tau(  34) = (   0.1666109   0.6664435   0.1666109  )
        35           Au  tau(  35) = (   0.4998326   0.6664435   0.1666109  )
        36           Au  tau(  36) = (   0.8330542   0.6664435   0.1666109  )
        37           Au  tau(  37) = (   0.0000000   0.8330542   0.1666109  )
        38           Au  tau(  38) = (   0.3332217   0.8330542   0.1666109  )
        39           Au  tau(  39) = (   0.6664435   0.8330542   0.1666109  )
        40           Au  tau(  40) = (  -0.0000182  -0.0000182   0.3335478  )
        41           Au  tau(  41) = (   0.3332215  -0.0000181   0.3335472  )
        42           Au  tau(  42) = (   0.6664447  -0.0000183   0.3335481  )
        43           Au  tau(  43) = (  -0.0000181   0.3332215   0.3335472  )
        44           Au  tau(  44) = (   0.3332215   0.3332215   0.3335468  )
        45           Au  tau(  45) = (   0.6664445   0.3332215   0.3335478  )
        46           Au  tau(  46) = (  -0.0000183   0.6664447   0.3335481  )
        47           Au  tau(  47) = (   0.3332215   0.6664445   0.3335478  )
        48           Au  tau(  48) = (   0.6664446   0.6664446   0.3335486  )
        49           Au  tau(  49) = (   0.1666097   0.1666097   0.3335483  )
        50           Au  tau(  50) = (   0.4998320   0.1666098   0.3335477  )
        51           Au  tau(  51) = (   0.8330732   0.1666096   0.3335481  )
        52           Au  tau(  52) = (   0.1666098   0.4998320   0.3335477  )
        53           Au  tau(  53) = (   0.4998321   0.4998321   0.3335470  )
        54           Au  tau(  54) = (   0.8330730   0.4998322   0.3335474  )
        55           Au  tau(  55) = (   0.1666096   0.8330732   0.3335481  )
        56           Au  tau(  56) = (   0.4998322   0.8330730   0.3335474  )
        57           Au  tau(  57) = (   0.8330731   0.8330731   0.3335478  )
        58           Au  tau(  58) = (   0.1666104  -0.0000111   0.4993095  )
        59           Au  tau(  59) = (   0.4998323  -0.0000112   0.4993099  )
        60           Au  tau(  60) = (   0.8330661  -0.0000111   0.4993009  )
        61           Au  tau(  61) = (  -0.0000111   0.1666104   0.4993095  )
        62           Au  tau(  62) = (   0.3332214   0.1666106   0.4993185  )
        63           Au  tau(  63) = (   0.6664437   0.1666106   0.4993187  )
        64           Au  tau(  64) = (   0.1666106   0.3332214   0.4993185  )
        65           Au  tau(  65) = (   0.4998324   0.3332216   0.4993185  )
        66           Au  tau(  66) = (   0.8330659   0.3332215   0.4993103  )
        67           Au  tau(  67) = (  -0.0000112   0.4998323   0.4993099  )
        68           Au  tau(  68) = (   0.3332216   0.4998324   0.4993185  )
        69           Au  tau(  69) = (   0.6664436   0.4998325   0.4993187  )
        70           Au  tau(  70) = (   0.1666106   0.6664437   0.4993187  )
        71           Au  tau(  71) = (   0.4998325   0.6664436   0.4993187  )
        72           Au  tau(  72) = (   0.8330658   0.6664438   0.4993102  )
        73           Au  tau(  73) = (  -0.0000111   0.8330661   0.4993009  )
        74           Au  tau(  74) = (   0.3332215   0.8330659   0.4993103  )
        75           Au  tau(  75) = (   0.6664438   0.8330658   0.4993102  )

     number of k points=     6  Marzari-Vanderbilt smearing, width (Ry)=  0.0200
                       cart. coord. in units 2pi/alat
        k(    1) = (   0.2500000   0.2500000   0.0833333), wk =   0.3333333
        k(    2) = (   0.2500000   0.2500000  -0.2500000), wk =   0.3333333
        k(    3) = (  -0.2500000  -0.2500000   0.0833333), wk =   0.3333333
        k(    4) = (  -0.2500000   0.2500000  -0.0833333), wk =   0.3333333
        k(    5) = (   0.2500000  -0.2500000  -0.0833333), wk =   0.3333333
        k(    6) = (  -0.2500000   0.2500000   0.2500000), wk =   0.3333333

     Dense  grid:  3792731 G-vectors     FFT dimensions: ( 160, 160, 320)

     Smooth grid:  1341081 G-vectors     FFT dimensions: ( 120, 120, 225)

     Largest allocated arrays     est. size (Mb)     dimensions
        Kohn-Sham Wavefunctions        38.58 Mb     (    5267,  480)
        NL pseudopotentials            76.03 Mb     (    5267,  946)
        Each V/rho on FFT grid          3.91 Mb     (  256000)
        Each G-vector array             0.90 Mb     (  118520)
        G-vector shells                 0.08 Mb     (   10286)
     Largest temporary arrays     est. size (Mb)     dimensions
        Auxiliary wavefunctions       154.31 Mb     (    5267, 1920)
        Each subspace H/S matrix       56.25 Mb     (    1920, 1920)
        Each <psi_i|beta_j> matrix      6.93 Mb     (     946,  480)
        Arrays for rho mixing          31.25 Mb     (  256000,    8)

     Initial potential from superposition of free atoms
     Check: negative starting charge=   -1.945085

     starting charge  799.16392, renormalised to  800.00000

     negative rho (up, down):  1.947E+00 0.000E+00


     ************************************************************************
     *
     * You are using vdW-DF for exchange-correlation in this calculation.
     * Please cite the following three references that made this development
     * possible:
     *
     *   M. Dion, H. Rydberg, E. Schroder, D. C. Langreth, and
     *   B. I. Lundqvist, Phys. Rev. Lett. 92, 246401 (2004).
     *
     *   T. Thonhauser, V. R. Cooper, S. Li, A. Puzder, P. Hyldgaard, and
     *   D. C. Langreth, Phys. Rev. B 76, 125112 (2007).
     *
     *   G. Roman-Perez and J. M. Soler, Phys. Rev. Lett. 103, 096102 (2009).
     *
     *
     * If you are using vdW-DF2, please also cite:
     *
     *   K. Lee, E. D. Murray, L. Kong, B. I. Lundqvist, and
     *   D. C. Langreth, Phys. Rev. B 82, 081101(R) (2010).
     *
     *
     * If you are calculating the stress with vdW-DF, please also cite:
     *
     *   R. Sabatini, E. Kucukbenli, B. Kolb, T. Thonhauser, and
     *   S. de Gironcoli, J. Phys.: Condens. Matter 24, 424209 (2012).
     *
     ************************************************************************

     Carrying out vdW-DF run using the following parameters:

     Nqs =      20    Nr_points =    1024   r_max =   100.000
     q_mesh =
               0.00001000     0.04494208     0.09755937     0.15916263
               0.23128650     0.31572767     0.41458969     0.53033537
               0.66584808     0.82450364     1.01025438     1.22772762
               1.48234092     1.78043706     2.12944203     2.53805004
               3.01644009     3.57652955     4.23227104     5.00000000

     Gradients computed in reciprocal space

     ************************************************************************


     Starting wfc are  654 randomized atomic wfcs

     total cpu time spent up to now is      125.6 secs

     Self-consistent Calculation

     iteration #  1     ecut=    50.00 Ry     beta=0.70
     Davidson diagonalization with overlap
     ethr =  1.00E-02,  avg # of iterations =  3.0

     Threshold (ethr) on eigenvalues was too large:
     Diagonalizing with lowered threshold

     Davidson diagonalization with overlap
     ethr =  4.11E-04,  avg # of iterations =  2.0

     negative rho (up, down):  1.947E+00 0.000E+00

     total cpu time spent up to now is      576.2 secs

     total energy              =   -7423.07636486 Ry
     Harris-Foulkes estimate   =   -7426.03620652 Ry
     estimated scf accuracy    <       3.65807218 Ry

     iteration #  2     ecut=    50.00 Ry     beta=0.70
     Davidson diagonalization with overlap
     ethr =  4.57E-04,  avg # of iterations = 11.3

     negative rho (up, down):  1.943E+00 0.000E+00

     total cpu time spent up to now is     1419.6 secs

     total energy              =   -7415.71507773 Ry
     Harris-Foulkes estimate   =   -7432.27482122 Ry
     estimated scf accuracy    <      84.70535837 Ry

     iteration #  3     ecut=    50.00 Ry     beta=0.70
     Davidson diagonalization with overlap
     ethr =  4.57E-04,  avg # of iterations =  6.0

     negative rho (up, down):  1.953E+00 0.000E+00

     total cpu time spent up to now is     1955.6 secs

     total energy              =   -7424.11029941 Ry
     Harris-Foulkes estimate   =   -7425.86413917 Ry
     estimated scf accuracy    <       7.31289534 Ry

     iteration #  4     ecut=    50.00 Ry     beta=0.70
     Davidson diagonalization with overlap
     ethr =  4.57E-04,  avg # of iterations =  5.0

     negative rho (up, down):  1.958E+00 0.000E+00

     total cpu time spent up to now is     2242.7 secs

     total energy              =   -7425.03954430 Ry
     Harris-Foulkes estimate   =   -7425.51871784 Ry
     estimated scf accuracy    <       1.74205149 Ry

     iteration #  5     ecut=    50.00 Ry     beta=0.70
     Davidson diagonalization with overlap
     ethr =  2.18E-04,  avg # of iterations =  9.0

     negative rho (up, down):  1.963E+00 0.000E+00

     total cpu time spent up to now is     2580.7 secs

     total energy              =   -7424.98665394 Ry
     Harris-Foulkes estimate   =   -7425.57470637 Ry
     estimated scf accuracy    <       4.78364106 Ry

     iteration #  6     ecut=    50.00 Ry     beta=0.70
     Davidson diagonalization with overlap
     ethr =  2.18E-04,  avg # of iterations =  5.7

     negative rho (up, down):  1.967E+00 0.000E+00

     total cpu time spent up to now is     2858.8 secs

     total energy              =   -7425.25252385 Ry
     Harris-Foulkes estimate   =   -7425.31463894 Ry
     estimated scf accuracy    <       0.27469868 Ry

     iteration #  7     ecut=    50.00 Ry     beta=0.70
     Davidson diagonalization with overlap
     ethr =  3.43E-05,  avg # of iterations =  4.0

     negative rho (up, down):  1.970E+00 0.000E+00

     total cpu time spent up to now is     3109.2 secs

     total energy              =   -7425.25813996 Ry
     Harris-Foulkes estimate   =   -7425.30484207 Ry
     estimated scf accuracy    <       0.24324216 Ry

     iteration #  8     ecut=    50.00 Ry     beta=0.70
     Davidson diagonalization with overlap
     ethr =  3.04E-05,  avg # of iterations =  4.2

     negative rho (up, down):  1.971E+00 0.000E+00

     total cpu time spent up to now is     3375.9 secs

     total energy              =   -7425.26684100 Ry
     Harris-Foulkes estimate   =   -7425.28629715 Ry
     estimated scf accuracy    <       0.08750026 Ry

     iteration #  9     ecut=    50.00 Ry     beta=0.70
     Davidson diagonalization with overlap
     ethr =  1.09E-05,  avg # of iterations =  7.3

     negative rho (up, down):  1.972E+00 0.000E+00

     total cpu time spent up to now is     3697.7 secs

     total energy              =   -7425.26750087 Ry
     Harris-Foulkes estimate   =   -7425.27811527 Ry
     estimated scf accuracy    <       0.03857969 Ry

     iteration # 10     ecut=    50.00 Ry     beta=0.70
     Davidson diagonalization with overlap
     ethr =  4.82E-06,  avg # of iterations =  4.8

     negative rho (up, down):  1.973E+00 0.000E+00

     total cpu time spent up to now is     3977.0 secs

     total energy              =   -7425.26843738 Ry
     Harris-Foulkes estimate   =   -7425.27198511 Ry
     estimated scf accuracy    <       0.01089219 Ry

     iteration # 11     ecut=    50.00 Ry     beta=0.70
     Davidson diagonalization with overlap
     ethr =  1.36E-06,  avg # of iterations =  8.0

     negative rho (up, down):  1.974E+00 0.000E+00

     total cpu time spent up to now is     4287.9 secs

     total energy              =   -7425.26877567 Ry
     Harris-Foulkes estimate   =   -7425.27006771 Ry
     estimated scf accuracy    <       0.00436643 Ry

     iteration # 12     ecut=    50.00 Ry     beta=0.70
     Davidson diagonalization with overlap
     ethr =  5.46E-07,  avg # of iterations =  2.0

     negative rho (up, down):  1.974E+00 0.000E+00

     total cpu time spent up to now is     4546.6 secs

     total energy              =   -7425.26818973 Ry
     Harris-Foulkes estimate   =   -7425.26933166 Ry
     estimated scf accuracy    <       0.00193790 Ry

     iteration # 13     ecut=    50.00 Ry     beta=0.70
     Davidson diagonalization with overlap
     ethr =  2.42E-07,  avg # of iterations =  4.8

     negative rho (up, down):  1.974E+00 0.000E+00

     total cpu time spent up to now is     4930.1 secs

     total energy              =   -7425.26703326 Ry
     Harris-Foulkes estimate   =   -7425.27086060 Ry
     estimated scf accuracy    <       0.02099281 Ry

     iteration # 14     ecut=    50.00 Ry     beta=0.70
     Davidson diagonalization with overlap
     ethr =  2.42E-07,  avg # of iterations =  3.0

     negative rho (up, down):  1.974E+00 0.000E+00

     total cpu time spent up to now is     5251.4 secs

     total energy              =   -7425.26878851 Ry
     Harris-Foulkes estimate   =   -7425.26896601 Ry
     estimated scf accuracy    <       0.00050576 Ry

     iteration # 15     ecut=    50.00 Ry     beta=0.70
     Davidson diagonalization with overlap
     ethr =  6.32E-08,  avg # of iterations =  3.0

     negative rho (up, down):  1.974E+00 0.000E+00

     total cpu time spent up to now is     5535.7 secs

     total energy              =   -7425.26868370 Ry
     Harris-Foulkes estimate   =   -7425.26908250 Ry
     estimated scf accuracy    <       0.00251621 Ry

     iteration # 16     ecut=    50.00 Ry     beta=0.70
     Davidson diagonalization with overlap
     ethr =  6.32E-08,  avg # of iterations =  2.0

     negative rho (up, down):  1.974E+00 0.000E+00

     total cpu time spent up to now is     5745.0 secs

     total energy              =   -7425.26882969 Ry
     Harris-Foulkes estimate   =   -7425.26898517 Ry
     estimated scf accuracy    <       0.00116218 Ry

     iteration # 17     ecut=    50.00 Ry     beta=0.70
     Davidson diagonalization with overlap
     ethr =  6.32E-08,  avg # of iterations =  2.0

     negative rho (up, down):  1.974E+00 0.000E+00

     total cpu time spent up to now is     5998.8 secs

     total energy              =   -7425.26888265 Ry
     Harris-Foulkes estimate   =   -7425.26893109 Ry
     estimated scf accuracy    <       0.00020710 Ry

     iteration # 18     ecut=    50.00 Ry     beta=0.70
     Davidson diagonalization with overlap
     ethr =  2.59E-08,  avg # of iterations =  2.0

     negative rho (up, down):  1.974E+00 0.000E+00

     total cpu time spent up to now is     6246.2 secs

     total energy              =   -7425.26890471 Ry
     Harris-Foulkes estimate   =   -7425.26891453 Ry
     estimated scf accuracy    <       0.00004071 Ry

     iteration # 19     ecut=    50.00 Ry     beta=0.70
     Davidson diagonalization with overlap
     ethr =  5.09E-09,  avg # of iterations =  2.0

     negative rho (up, down):  1.974E+00 0.000E+00

     total cpu time spent up to now is     6490.9 secs

     total energy              =   -7425.26890834 Ry
     Harris-Foulkes estimate   =   -7425.26891229 Ry
     estimated scf accuracy    <       0.00001560 Ry

     iteration # 20     ecut=    50.00 Ry     beta=0.70
     Davidson diagonalization with overlap
     ethr =  1.95E-09,  avg # of iterations =  2.0

     negative rho (up, down):  1.974E+00 0.000E+00

     total cpu time spent up to now is     6742.8 secs

     total energy              =   -7425.26890987 Ry
     Harris-Foulkes estimate   =   -7425.26891144 Ry
     estimated scf accuracy    <       0.00000552 Ry

     iteration # 21     ecut=    50.00 Ry     beta=0.70
     Davidson diagonalization with overlap
     ethr =  6.90E-10,  avg # of iterations =  2.0

     negative rho (up, down):  1.974E+00 0.000E+00

     total cpu time spent up to now is     6987.7 secs

     total energy              =   -7425.26891069 Ry
     Harris-Foulkes estimate   =   -7425.26891080 Ry
     estimated scf accuracy    <       0.00000044 Ry

     iteration # 22     ecut=    50.00 Ry     beta=0.70
     Davidson diagonalization with overlap
     ethr =  5.44E-11,  avg # of iterations =  3.0

     negative rho (up, down):  1.974E+00 0.000E+00

     total cpu time spent up to now is     7317.7 secs

     total energy              =   -7425.26891079 Ry
     Harris-Foulkes estimate   =   -7425.26891085 Ry
     estimated scf accuracy    <       0.00000025 Ry

     iteration # 23     ecut=    50.00 Ry     beta=0.70
     Davidson diagonalization with overlap
     ethr =  3.18E-11,  avg # of iterations =  3.0

     negative rho (up, down):  1.974E+00 0.000E+00

     total cpu time spent up to now is     7590.2 secs

     total energy              =   -7425.26891078 Ry
     Harris-Foulkes estimate   =   -7425.26891087 Ry
     estimated scf accuracy    <       0.00000035 Ry

     iteration # 24     ecut=    50.00 Ry     beta=0.70
     Davidson diagonalization with overlap
     ethr =  3.18E-11,  avg # of iterations =  2.0

     negative rho (up, down):  1.974E+00 0.000E+00

     total cpu time spent up to now is     7818.7 secs

     total energy              =   -7425.26891085 Ry
     Harris-Foulkes estimate   =   -7425.26891084 Ry
     estimated scf accuracy    <       0.00000011 Ry

     iteration # 25     ecut=    50.00 Ry     beta=0.70
     Davidson diagonalization with overlap
     ethr =  1.38E-11,  avg # of iterations =  2.0

     negative rho (up, down):  1.974E+00 0.000E+00

     total cpu time spent up to now is     8070.0 secs

     total energy              =   -7425.26891086 Ry
     Harris-Foulkes estimate   =   -7425.26891086 Ry
     estimated scf accuracy    <       0.00000002 Ry

     iteration # 26     ecut=    50.00 Ry     beta=0.70
     Davidson diagonalization with overlap
     ethr =  2.62E-12,  avg # of iterations =  3.0

     negative rho (up, down):  1.974E+00 0.000E+00

     total cpu time spent up to now is     8302.3 secs

     total energy              =   -7425.26891086 Ry
     Harris-Foulkes estimate   =   -7425.26891087 Ry
     estimated scf accuracy    <       0.00000007 Ry

     iteration # 27     ecut=    50.00 Ry     beta=0.70
     Davidson diagonalization with overlap
     ethr =  2.62E-12,  avg # of iterations =  2.0

     negative rho (up, down):  1.974E+00 0.000E+00

     total cpu time spent up to now is     8560.4 secs

     total energy              =   -7425.26891087 Ry
     Harris-Foulkes estimate   =   -7425.26891087 Ry
     estimated scf accuracy    <       0.00000003 Ry

     iteration # 28     ecut=    50.00 Ry     beta=0.70
     Davidson diagonalization with overlap
     ethr =  2.62E-12,  avg # of iterations =  2.0

     negative rho (up, down):  1.974E+00 0.000E+00

     total cpu time spent up to now is     8801.4 secs

     total energy              =   -7425.26891087 Ry
     Harris-Foulkes estimate   =   -7425.26891087 Ry
     estimated scf accuracy    <       0.00000002 Ry

     iteration # 29     ecut=    50.00 Ry     beta=0.70
     Davidson diagonalization with overlap
     ethr =  2.62E-12,  avg # of iterations =  2.0

     negative rho (up, down):  1.974E+00 0.000E+00

     total cpu time spent up to now is     9055.3 secs

     End of self-consistent calculation

          k = 0.2500 0.2500 0.0833 (167653 PWs)   bands (ev):

   -19.2664  -7.4505  -6.8610  -6.3353  -6.3340  -5.9060  -5.4963  -5.4051
    -5.4033  -5.2096  -5.2076  -5.0911  -5.0889  -5.0126  -4.9888  -4.9163
    -4.8325  -4.8273  -4.7889  -4.7880  -4.6294  -4.6127  -4.6113  -4.6087
    -4.6023  -4.5477  -4.5471  -4.5366  -4.5341  -4.4982  -4.4877  -4.4841
    -4.4446  -4.4428  -4.4108  -4.4093  -4.3610  -4.3552  -4.3474  -4.3455
    -4.3391  -4.3269  -4.3258  -4.2869  -4.2687  -4.2667  -4.2600  -4.2589
    -4.2282  -4.1798  -4.1664  -4.1627  -4.1612  -4.1569  -4.1516  -4.1467
    -4.1454  -4.1436  -4.0841  -4.0781  -4.0358  -4.0282  -4.0179  -3.9934
    -3.9915  -3.9764  -3.9683  -3.9672  -3.9647  -3.9613  -3.9141  -3.9126
    -3.9012  -3.8978  -3.8036  -3.7941  -3.7921  -3.7856  -3.7521  -3.7475
    -3.7282  -3.7062  -3.6989  -3.6732  -3.6662  -3.6573  -3.6462  -3.6387
    -3.6312  -3.5957  -3.5772  -3.5723  -3.5527  -3.5388  -3.5356  -3.5301
    -3.5291  -3.5157  -3.5024  -3.4918  -3.4671  -3.4512  -3.4482  -3.4354
    -3.4132  -3.4062  -3.3944  -3.3660  -3.3636  -3.3289  -3.3258  -3.2908
    -3.2830  -3.2811  -3.2690  -3.2680  -3.2628  -3.2596  -3.2290  -3.2138
    -3.1764  -3.1736  -3.1652  -3.1560  -3.1544  -3.1499  -3.1312  -3.1305
    -3.1104  -3.1094  -3.1067  -3.0827  -3.0822  -3.0746  -3.0725  -3.0684
    -3.0346  -3.0323  -2.9990  -2.9948  -2.9941  -2.9925  -2.9903  -2.9117
    -2.9048  -2.9028  -2.8999  -2.8960  -2.8952  -2.8920  -2.8908  -2.8896
    -2.8891  -2.8806  -2.8726  -2.8581  -2.8551  -2.8511  -2.8485  -2.8385
    -2.8357  -2.7982  -2.7946  -2.7943  -2.7897  -2.7882  -2.7728  -2.7705
    -2.7648  -2.7628  -2.7595  -2.7053  -2.7019  -2.6990  -2.6955  -2.6920
    -2.6870  -2.6627  -2.6066  -2.6043  -2.6013  -2.5989  -2.5898  -2.5869
    -2.5802  -2.5738  -2.5707  -2.5407  -2.5338  -2.5309  -2.5271  -2.5233
    -2.5220  -2.4871  -2.4861  -2.4774  -2.4752  -2.4730  -2.4705  -2.4309
    -2.4143  -2.4098  -2.3613  -2.3552  -2.3440  -2.3398  -2.3297  -2.3277
    -2.2866  -2.2790  -2.2591  -2.2503  -2.2344  -2.2277  -2.2239  -2.2069
    -2.2034  -2.1955  -2.1765  -2.1514  -2.1390  -2.1275  -2.1206  -2.1200
    -2.1173  -2.1110  -2.1087  -2.0968  -2.0931  -2.0915  -2.0872  -2.0840
    -2.0826  -2.0779  -2.0720  -2.0575  -2.0543  -2.0527  -2.0492  -2.0455
    -2.0419  -2.0246  -2.0183  -2.0086  -2.0074  -2.0001  -1.9994  -1.9632
    -1.9318  -1.9299  -1.8949  -1.8882  -1.8793  -1.8724  -1.8634  -1.8477
    -1.8429  -1.8332  -1.8294  -1.8271  -1.8238  -1.8231  -1.8194  -1.7897
    -1.7890  -1.7879  -1.7460  -1.7441  -1.7096  -1.7005  -1.6597  -1.6568
    -1.6440  -1.6255  -1.6173  -1.6143  -1.6111  -1.5995  -1.5851  -1.5810
    -1.5768  -1.5751  -1.5713  -1.5704  -1.5680  -1.5674  -1.5511  -1.5460
    -1.5350  -1.5210  -1.5064  -1.5048  -1.4854  -1.4754  -1.4714  -1.4695
    -1.4683  -1.4631  -1.4503  -1.4399  -1.4295  -1.4258  -1.4165  -1.4069
    -1.3950  -1.3896  -1.3665  -1.3616  -1.3557  -1.3507  -1.3255  -1.3172
    -1.3101  -1.3063  -1.3052  -1.2999  -1.2811  -1.2775  -1.2725  -1.2664
    -1.2592  -1.2529  -1.2487  -1.2437  -1.2421  -1.2334  -1.2282  -1.2200
    -1.2123  -1.2112  -1.2061  -1.1977  -1.1951  -1.1881  -1.1700  -1.1493
    -1.1438  -1.1414  -1.1404  -1.1372  -1.1275  -1.1009  -1.0830  -1.0806
    -1.0803  -1.0790  -1.0747  -1.0715  -1.0609  -1.0568  -1.0515  -1.0217
    -1.0191  -1.0130  -1.0115  -0.9913  -0.9896  -0.9799  -0.9527  -0.9423
    -0.9191  -0.9135  -0.8892  -0.8879  -0.8839  -0.8835  -0.8807  -0.8758
    -0.8732  -0.8728  -0.8689  -0.8668  -0.8374  -0.8352  -0.8166  -0.8149
    -0.8118  -0.8105  -0.8086  -0.8042  -0.7919  -0.5214  -0.5039  -0.4454
    -0.4415  -0.4107  -0.2490  -0.1864  -0.1832  -0.1464   0.1360   0.1372
     0.4671   0.4699   0.5629   0.5644   0.6040   0.6072   0.7507   0.7541
     0.8709   0.8755   0.9722   1.5619   1.5770   1.5791   1.6172   1.6235
     1.6723   1.6804   1.7466   1.7518   1.9531   1.9570   2.1964   2.2677
     2.2750   2.2868   2.6686   2.6755   2.7393   2.7411   2.7466   2.7505
     2.8988   2.9003   2.9635   3.0434   3.0495   3.2735   3.2765   3.4076
     3.4323   3.4404   3.7060   3.7123   3.8214   3.8395   3.8420   3.9199
     3.9411   4.0230   4.0303   4.2592   4.2657   4.3551   4.3606   4.4725
     4.4783   4.4985   4.5098   4.6739   5.1874   5.3240   5.3410   5.4056
     5.4110   5.5414   5.5832   5.5922   5.6567   5.7006   5.7092   5.7139
     5.7519   5.7560   5.7596   5.8069   6.0222   6.0651   6.0820   6.0951
     6.0984   6.1044   6.1096   6.1104   6.1111   6.1545   6.1826   6.2115

          k = 0.2500 0.2500-0.2500 (167588 PWs)   bands (ev):

   -19.2664  -7.4505  -6.8610  -6.3353  -6.3340  -5.9060  -5.4963  -5.4051
    -5.4033  -5.2096  -5.2076  -5.0911  -5.0889  -5.0126  -4.9888  -4.9163
    -4.8325  -4.8273  -4.7889  -4.7880  -4.6294  -4.6127  -4.6113  -4.6087
    -4.6023  -4.5477  -4.5471  -4.5366  -4.5341  -4.4982  -4.4877  -4.4841
    -4.4446  -4.4428  -4.4108  -4.4093  -4.3610  -4.3552  -4.3474  -4.3455
    -4.3391  -4.3269  -4.3258  -4.2869  -4.2688  -4.2667  -4.2600  -4.2589
    -4.2282  -4.1798  -4.1664  -4.1627  -4.1612  -4.1569  -4.1516  -4.1467
    -4.1454  -4.1436  -4.0841  -4.0781  -4.0358  -4.0282  -4.0179  -3.9934
    -3.9915  -3.9764  -3.9683  -3.9672  -3.9647  -3.9613  -3.9141  -3.9126
    -3.9012  -3.8978  -3.8036  -3.7941  -3.7921  -3.7856  -3.7521  -3.7475
    -3.7282  -3.7062  -3.6989  -3.6732  -3.6662  -3.6573  -3.6462  -3.6387
    -3.6311  -3.5957  -3.5772  -3.5723  -3.5527  -3.5388  -3.5356  -3.5301
    -3.5291  -3.5157  -3.5024  -3.4918  -3.4670  -3.4512  -3.4482  -3.4354
    -3.4132  -3.4061  -3.3944  -3.3660  -3.3636  -3.3289  -3.3258  -3.2908
    -3.2830  -3.2811  -3.2690  -3.2680  -3.2628  -3.2596  -3.2291  -3.2138
    -3.1764  -3.1736  -3.1652  -3.1560  -3.1543  -3.1499  -3.1312  -3.1305
    -3.1104  -3.1094  -3.1067  -3.0827  -3.0822  -3.0746  -3.0725  -3.0683
    -3.0346  -3.0323  -2.9990  -2.9948  -2.9941  -2.9925  -2.9903  -2.9117
    -2.9048  -2.9028  -2.8999  -2.8960  -2.8952  -2.8920  -2.8907  -2.8896
    -2.8891  -2.8806  -2.8726  -2.8581  -2.8551  -2.8511  -2.8485  -2.8384
    -2.8357  -2.7982  -2.7946  -2.7943  -2.7897  -2.7882  -2.7728  -2.7704
    -2.7648  -2.7628  -2.7595  -2.7053  -2.7019  -2.6990  -2.6955  -2.6920
    -2.6870  -2.6627  -2.6066  -2.6043  -2.6013  -2.5989  -2.5898  -2.5869
    -2.5802  -2.5738  -2.5707  -2.5407  -2.5338  -2.5309  -2.5271  -2.5233
    -2.5220  -2.4871  -2.4862  -2.4774  -2.4752  -2.4730  -2.4705  -2.4309
    -2.4142  -2.4098  -2.3613  -2.3552  -2.3440  -2.3399  -2.3297  -2.3277
    -2.2866  -2.2790  -2.2591  -2.2503  -2.2344  -2.2277  -2.2239  -2.2069
    -2.2034  -2.1955  -2.1765  -2.1514  -2.1390  -2.1275  -2.1206  -2.1200
    -2.1173  -2.1110  -2.1087  -2.0968  -2.0931  -2.0915  -2.0872  -2.0840
    -2.0826  -2.0779  -2.0720  -2.0575  -2.0543  -2.0527  -2.0492  -2.0455
    -2.0419  -2.0246  -2.0183  -2.0086  -2.0074  -2.0001  -1.9994  -1.9632
    -1.9318  -1.9299  -1.8949  -1.8882  -1.8793  -1.8723  -1.8634  -1.8477
    -1.8429  -1.8332  -1.8293  -1.8271  -1.8238  -1.8231  -1.8194  -1.7897
    -1.7890  -1.7879  -1.7459  -1.7441  -1.7096  -1.7005  -1.6597  -1.6568
    -1.6440  -1.6255  -1.6173  -1.6143  -1.6111  -1.5995  -1.5851  -1.5810
    -1.5768  -1.5751  -1.5713  -1.5704  -1.5680  -1.5674  -1.5511  -1.5460
    -1.5351  -1.5210  -1.5064  -1.5048  -1.4854  -1.4754  -1.4714  -1.4695
    -1.4683  -1.4631  -1.4503  -1.4399  -1.4295  -1.4258  -1.4165  -1.4069
    -1.3950  -1.3896  -1.3665  -1.3616  -1.3557  -1.3507  -1.3254  -1.3171
    -1.3101  -1.3063  -1.3052  -1.2999  -1.2811  -1.2775  -1.2725  -1.2663
    -1.2592  -1.2529  -1.2487  -1.2437  -1.2421  -1.2334  -1.2282  -1.2200
    -1.2123  -1.2112  -1.2061  -1.1977  -1.1951  -1.1881  -1.1700  -1.1493
    -1.1438  -1.1414  -1.1404  -1.1372  -1.1275  -1.1009  -1.0830  -1.0806
    -1.0803  -1.0790  -1.0747  -1.0715  -1.0609  -1.0568  -1.0515  -1.0217
    -1.0191  -1.0130  -1.0115  -0.9913  -0.9896  -0.9799  -0.9527  -0.9423
    -0.9191  -0.9135  -0.8892  -0.8879  -0.8839  -0.8835  -0.8807  -0.8758
    -0.8732  -0.8728  -0.8689  -0.8668  -0.8374  -0.8352  -0.8167  -0.8149
    -0.8118  -0.8105  -0.8086  -0.8041  -0.7919  -0.5214  -0.5039  -0.4454
    -0.4415  -0.4107  -0.2490  -0.1864  -0.1832  -0.1464   0.1360   0.1372
     0.4671   0.4699   0.5629   0.5644   0.6040   0.6072   0.7507   0.7541
     0.8709   0.8755   0.9722   1.5619   1.5770   1.5791   1.6172   1.6235
     1.6723   1.6804   1.7466   1.7518   1.9531   1.9570   2.1964   2.2677
     2.2750   2.2868   2.6686   2.6755   2.7393   2.7411   2.7466   2.7505
     2.8988   2.9003   2.9636   3.0435   3.0495   3.2735   3.2765   3.4076
     3.4323   3.4404   3.7060   3.7123   3.8214   3.8395   3.8420   3.9199
     3.9412   4.0230   4.0303   4.2592   4.2657   4.3551   4.3606   4.4725
     4.4783   4.4985   4.5098   4.6741   5.1781   5.3223   5.3355   5.4056
     5.4104   5.5457   5.5834   5.5923   5.6638   5.7051   5.7085   5.7315
     5.7535   5.7595   5.7678   5.8070   6.0438   6.0654   6.0825   6.0927
     6.1002   6.1040   6.1083   6.1109   6.1144   6.1436   6.1939   6.2368

          k =-0.2500-0.2500 0.0833 (167653 PWs)   bands (ev):

   -19.2664  -7.4505  -6.8610  -6.3353  -6.3340  -5.9060  -5.4963  -5.4051
    -5.4033  -5.2096  -5.2076  -5.0911  -5.0889  -5.0126  -4.9888  -4.9163
    -4.8325  -4.8273  -4.7889  -4.7880  -4.6294  -4.6127  -4.6113  -4.6087
    -4.6023  -4.5477  -4.5471  -4.5366  -4.5341  -4.4982  -4.4877  -4.4841
    -4.4446  -4.4428  -4.4108  -4.4093  -4.3610  -4.3552  -4.3474  -4.3455
    -4.3391  -4.3269  -4.3258  -4.2869  -4.2687  -4.2667  -4.2600  -4.2589
    -4.2282  -4.1798  -4.1664  -4.1627  -4.1612  -4.1569  -4.1516  -4.1467
    -4.1454  -4.1436  -4.0841  -4.0781  -4.0358  -4.0282  -4.0179  -3.9934
    -3.9915  -3.9764  -3.9683  -3.9672  -3.9647  -3.9613  -3.9141  -3.9126
    -3.9012  -3.8978  -3.8036  -3.7941  -3.7921  -3.7856  -3.7521  -3.7475
    -3.7282  -3.7062  -3.6989  -3.6732  -3.6662  -3.6573  -3.6462  -3.6387
    -3.6312  -3.5957  -3.5772  -3.5723  -3.5527  -3.5388  -3.5356  -3.5301
    -3.5291  -3.5157  -3.5024  -3.4918  -3.4671  -3.4512  -3.4482  -3.4354
    -3.4132  -3.4062  -3.3944  -3.3660  -3.3636  -3.3289  -3.3258  -3.2908
    -3.2830  -3.2811  -3.2690  -3.2680  -3.2628  -3.2596  -3.2290  -3.2138
    -3.1764  -3.1736  -3.1652  -3.1560  -3.1544  -3.1499  -3.1312  -3.1305
    -3.1104  -3.1094  -3.1067  -3.0827  -3.0822  -3.0746  -3.0725  -3.0684
    -3.0346  -3.0323  -2.9990  -2.9948  -2.9941  -2.9925  -2.9903  -2.9117
    -2.9048  -2.9028  -2.8999  -2.8960  -2.8952  -2.8920  -2.8908  -2.8896
    -2.8891  -2.8806  -2.8726  -2.8581  -2.8551  -2.8511  -2.8485  -2.8385
    -2.8357  -2.7982  -2.7946  -2.7943  -2.7897  -2.7882  -2.7728  -2.7705
    -2.7648  -2.7628  -2.7595  -2.7053  -2.7019  -2.6990  -2.6955  -2.6920
    -2.6870  -2.6627  -2.6066  -2.6043  -2.6013  -2.5989  -2.5898  -2.5869
    -2.5802  -2.5738  -2.5707  -2.5407  -2.5338  -2.5309  -2.5271  -2.5233
    -2.5220  -2.4871  -2.4861  -2.4774  -2.4752  -2.4730  -2.4705  -2.4309
    -2.4142  -2.4098  -2.3613  -2.3552  -2.3440  -2.3398  -2.3297  -2.3277
    -2.2866  -2.2790  -2.2591  -2.2503  -2.2344  -2.2277  -2.2239  -2.2069
    -2.2034  -2.1955  -2.1765  -2.1514  -2.1390  -2.1275  -2.1206  -2.1200
    -2.1173  -2.1110  -2.1087  -2.0968  -2.0931  -2.0915  -2.0872  -2.0840
    -2.0826  -2.0779  -2.0720  -2.0575  -2.0543  -2.0527  -2.0492  -2.0455
    -2.0419  -2.0246  -2.0183  -2.0086  -2.0074  -2.0001  -1.9994  -1.9632
    -1.9318  -1.9299  -1.8949  -1.8882  -1.8793  -1.8724  -1.8634  -1.8477
    -1.8429  -1.8332  -1.8294  -1.8271  -1.8238  -1.8231  -1.8194  -1.7897
    -1.7890  -1.7879  -1.7460  -1.7441  -1.7096  -1.7005  -1.6597  -1.6568
    -1.6440  -1.6255  -1.6173  -1.6143  -1.6111  -1.5995  -1.5851  -1.5810
    -1.5768  -1.5751  -1.5713  -1.5704  -1.5680  -1.5674  -1.5511  -1.5460
    -1.5350  -1.5210  -1.5064  -1.5048  -1.4854  -1.4754  -1.4714  -1.4695
    -1.4683  -1.4631  -1.4503  -1.4399  -1.4295  -1.4258  -1.4165  -1.4069
    -1.3950  -1.3896  -1.3665  -1.3616  -1.3557  -1.3507  -1.3255  -1.3172
    -1.3101  -1.3063  -1.3052  -1.2999  -1.2811  -1.2775  -1.2725  -1.2664
    -1.2592  -1.2529  -1.2487  -1.2437  -1.2421  -1.2334  -1.2282  -1.2200
    -1.2123  -1.2112  -1.2061  -1.1977  -1.1951  -1.1881  -1.1700  -1.1493
    -1.1438  -1.1414  -1.1404  -1.1372  -1.1275  -1.1009  -1.0830  -1.0806
    -1.0803  -1.0790  -1.0747  -1.0715  -1.0609  -1.0568  -1.0515  -1.0217
    -1.0191  -1.0130  -1.0115  -0.9913  -0.9896  -0.9799  -0.9527  -0.9423
    -0.9191  -0.9135  -0.8892  -0.8879  -0.8839  -0.8835  -0.8807  -0.8758
    -0.8732  -0.8728  -0.8689  -0.8668  -0.8374  -0.8352  -0.8166  -0.8149
    -0.8118  -0.8105  -0.8086  -0.8042  -0.7919  -0.5214  -0.5039  -0.4454
    -0.4415  -0.4107  -0.2490  -0.1864  -0.1832  -0.1464   0.1360   0.1372
     0.4671   0.4699   0.5629   0.5644   0.6040   0.6072   0.7507   0.7541
     0.8709   0.8755   0.9722   1.5619   1.5770   1.5791   1.6172   1.6235
     1.6723   1.6804   1.7466   1.7518   1.9531   1.9570   2.1964   2.2677
     2.2750   2.2868   2.6686   2.6755   2.7393   2.7411   2.7466   2.7505
     2.8988   2.9003   2.9635   3.0434   3.0495   3.2735   3.2765   3.4076
     3.4323   3.4404   3.7060   3.7123   3.8214   3.8395   3.8420   3.9199
     3.9411   4.0230   4.0303   4.2592   4.2657   4.3551   4.3606   4.4725
     4.4783   4.4985   4.5098   4.6739   5.1870   5.3238   5.3422   5.4057
     5.4110   5.5384   5.5832   5.5921   5.6577   5.7017   5.7093   5.7151
     5.7522   5.7565   5.7597   5.8071   6.0239   6.0655   6.0822   6.0947
     6.0996   6.1046   6.1082   6.1106   6.1112   6.1548   6.1772   6.2059

          k =-0.2500 0.2500-0.0833 (167653 PWs)   bands (ev):

   -19.2664  -7.4505  -6.8610  -6.3354  -6.3339  -5.9060  -5.4963  -5.4051
    -5.4033  -5.2096  -5.2076  -5.0912  -5.0888  -5.0125  -4.9888  -4.9163
    -4.8325  -4.8273  -4.7890  -4.7880  -4.6294  -4.6126  -4.6113  -4.6088
    -4.6023  -4.5477  -4.5471  -4.5365  -4.5341  -4.4982  -4.4876  -4.4841
    -4.4446  -4.4428  -4.4108  -4.4093  -4.3609  -4.3552  -4.3474  -4.3455
    -4.3391  -4.3269  -4.3258  -4.2869  -4.2687  -4.2667  -4.2600  -4.2589
    -4.2282  -4.1797  -4.1664  -4.1626  -4.1612  -4.1570  -4.1517  -4.1468
    -4.1454  -4.1435  -4.0840  -4.0781  -4.0357  -4.0282  -4.0177  -3.9934
    -3.9916  -3.9765  -3.9679  -3.9676  -3.9649  -3.9613  -3.9142  -3.9125
    -3.9011  -3.8979  -3.8021  -3.7944  -3.7922  -3.7856  -3.7523  -3.7475
    -3.7284  -3.7068  -3.6986  -3.6731  -3.6663  -3.6572  -3.6463  -3.6386
    -3.6312  -3.5977  -3.5773  -3.5735  -3.5506  -3.5386  -3.5358  -3.5297
    -3.5292  -3.5152  -3.5023  -3.4922  -3.4669  -3.4504  -3.4476  -3.4367
    -3.4127  -3.4067  -3.3944  -3.3651  -3.3636  -3.3289  -3.3258  -3.2911
    -3.2829  -3.2809  -3.2694  -3.2683  -3.2628  -3.2599  -3.2290  -3.2139
    -3.1764  -3.1735  -3.1652  -3.1554  -3.1549  -3.1500  -3.1313  -3.1305
    -3.1103  -3.1094  -3.1067  -3.0826  -3.0820  -3.0747  -3.0723  -3.0684
    -3.0346  -3.0323  -2.9991  -2.9950  -2.9943  -2.9925  -2.9903  -2.9117
    -2.9048  -2.9029  -2.8998  -2.8961  -2.8952  -2.8920  -2.8906  -2.8896
    -2.8891  -2.8806  -2.8726  -2.8583  -2.8548  -2.8510  -2.8486  -2.8385
    -2.8351  -2.7982  -2.7946  -2.7944  -2.7901  -2.7882  -2.7728  -2.7705
    -2.7646  -2.7628  -2.7595  -2.7056  -2.7016  -2.6987  -2.6955  -2.6917
    -2.6869  -2.6628  -2.6062  -2.6043  -2.6013  -2.5989  -2.5895  -2.5867
    -2.5802  -2.5740  -2.5706  -2.5409  -2.5334  -2.5309  -2.5269  -2.5238
    -2.5220  -2.4872  -2.4859  -2.4774  -2.4755  -2.4731  -2.4705  -2.4314
    -2.4149  -2.4104  -2.3617  -2.3550  -2.3439  -2.3398  -2.3297  -2.3278
    -2.2871  -2.2791  -2.2591  -2.2508  -2.2339  -2.2278  -2.2239  -2.2070
    -2.2032  -2.1955  -2.1765  -2.1518  -2.1386  -2.1281  -2.1207  -2.1198
    -2.1167  -2.1111  -2.1090  -2.0965  -2.0930  -2.0916  -2.0873  -2.0840
    -2.0826  -2.0777  -2.0723  -2.0578  -2.0541  -2.0527  -2.0489  -2.0455
    -2.0419  -2.0245  -2.0184  -2.0086  -2.0073  -2.0000  -1.9994  -1.9632
    -1.9317  -1.9297  -1.8948  -1.8861  -1.8794  -1.8718  -1.8636  -1.8483
    -1.8431  -1.8324  -1.8289  -1.8270  -1.8238  -1.8231  -1.8195  -1.7898
    -1.7889  -1.7878  -1.7461  -1.7441  -1.7093  -1.7006  -1.6608  -1.6568
    -1.6442  -1.6248  -1.6173  -1.6146  -1.6119  -1.5987  -1.5857  -1.5811
    -1.5762  -1.5750  -1.5713  -1.5704  -1.5681  -1.5672  -1.5509  -1.5461
    -1.5351  -1.5210  -1.5062  -1.5043  -1.4871  -1.4750  -1.4716  -1.4695
    -1.4690  -1.4631  -1.4491  -1.4400  -1.4300  -1.4261  -1.4168  -1.4069
    -1.3952  -1.3894  -1.3662  -1.3621  -1.3553  -1.3510  -1.3258  -1.3159
    -1.3102  -1.3062  -1.3048  -1.3002  -1.2814  -1.2770  -1.2725  -1.2671
    -1.2585  -1.2530  -1.2489  -1.2439  -1.2422  -1.2328  -1.2280  -1.2195
    -1.2123  -1.2109  -1.2063  -1.1970  -1.1950  -1.1881  -1.1696  -1.1491
    -1.1438  -1.1411  -1.1401  -1.1372  -1.1282  -1.1012  -1.0828  -1.0806
    -1.0803  -1.0790  -1.0753  -1.0714  -1.0618  -1.0568  -1.0533  -1.0215
    -1.0192  -1.0130  -1.0114  -0.9912  -0.9896  -0.9799  -0.9529  -0.9423
    -0.9191  -0.9135  -0.8890  -0.8879  -0.8838  -0.8835  -0.8807  -0.8757
    -0.8730  -0.8726  -0.8689  -0.8668  -0.8373  -0.8354  -0.8171  -0.8149
    -0.8113  -0.8105  -0.8087  -0.8045  -0.7920  -0.5214  -0.5039  -0.4460
    -0.4412  -0.4107  -0.2485  -0.1862  -0.1832  -0.1462   0.1359   0.1372
     0.4668   0.4703   0.5630   0.5643   0.6043   0.6073   0.7510   0.7536
     0.8709   0.8754   0.9723   1.5620   1.5770   1.5790   1.6166   1.6235
     1.6715   1.6814   1.7468   1.7516   1.9533   1.9569   2.1963   2.2676
     2.2751   2.2868   2.6680   2.6759   2.7394   2.7410   2.7467   2.7504
     2.8989   2.9002   2.9633   3.0442   3.0494   3.2739   3.2765   3.4076
     3.4324   3.4403   3.7063   3.7120   3.8209   3.8395   3.8420   3.9182
     3.9433   4.0232   4.0303   4.2593   4.2656   4.3551   4.3606   4.4723
     4.4783   4.4977   4.5100   4.6733   5.1862   5.3256   5.3408   5.4059
     5.4117   5.5377   5.5834   5.5921   5.6570   5.7016   5.7091   5.7136
     5.7543   5.7579   5.7596   5.8072   6.0262   6.0654   6.0818   6.0955
     6.1001   6.1044   6.1078   6.1101   6.1111   6.1563   6.1737   6.2086

          k = 0.2500-0.2500-0.0833 (167653 PWs)   bands (ev):

   -19.2664  -7.4505  -6.8610  -6.3354  -6.3339  -5.9060  -5.4963  -5.4051
    -5.4033  -5.2096  -5.2076  -5.0912  -5.0888  -5.0125  -4.9888  -4.9163
    -4.8325  -4.8273  -4.7890  -4.7880  -4.6294  -4.6126  -4.6113  -4.6088
    -4.6023  -4.5477  -4.5471  -4.5365  -4.5341  -4.4982  -4.4876  -4.4841
    -4.4446  -4.4428  -4.4108  -4.4093  -4.3609  -4.3552  -4.3474  -4.3455
    -4.3391  -4.3269  -4.3258  -4.2869  -4.2687  -4.2667  -4.2600  -4.2589
    -4.2282  -4.1797  -4.1664  -4.1626  -4.1612  -4.1570  -4.1517  -4.1468
    -4.1454  -4.1435  -4.0840  -4.0781  -4.0357  -4.0282  -4.0177  -3.9934
    -3.9916  -3.9765  -3.9679  -3.9676  -3.9649  -3.9613  -3.9142  -3.9125
    -3.9011  -3.8979  -3.8021  -3.7944  -3.7922  -3.7856  -3.7523  -3.7475
    -3.7284  -3.7068  -3.6986  -3.6731  -3.6663  -3.6572  -3.6463  -3.6386
    -3.6312  -3.5977  -3.5773  -3.5735  -3.5506  -3.5386  -3.5358  -3.5297
    -3.5292  -3.5152  -3.5023  -3.4922  -3.4669  -3.4504  -3.4476  -3.4367
    -3.4127  -3.4067  -3.3944  -3.3651  -3.3636  -3.3289  -3.3258  -3.2911
    -3.2829  -3.2809  -3.2694  -3.2683  -3.2628  -3.2599  -3.2290  -3.2139
    -3.1764  -3.1735  -3.1652  -3.1554  -3.1549  -3.1500  -3.1313  -3.1305
    -3.1103  -3.1094  -3.1067  -3.0826  -3.0820  -3.0747  -3.0723  -3.0684
    -3.0346  -3.0323  -2.9991  -2.9950  -2.9943  -2.9925  -2.9903  -2.9117
    -2.9048  -2.9029  -2.8998  -2.8961  -2.8952  -2.8920  -2.8906  -2.8896
    -2.8891  -2.8806  -2.8726  -2.8583  -2.8548  -2.8510  -2.8486  -2.8385
    -2.8351  -2.7982  -2.7946  -2.7944  -2.7901  -2.7882  -2.7728  -2.7705
    -2.7646  -2.7628  -2.7595  -2.7056  -2.7016  -2.6987  -2.6955  -2.6917
    -2.6870  -2.6628  -2.6062  -2.6043  -2.6013  -2.5989  -2.5895  -2.5867
    -2.5802  -2.5740  -2.5706  -2.5409  -2.5334  -2.5309  -2.5269  -2.5238
    -2.5220  -2.4872  -2.4859  -2.4774  -2.4755  -2.4731  -2.4705  -2.4314
    -2.4149  -2.4104  -2.3617  -2.3550  -2.3439  -2.3398  -2.3297  -2.3278
    -2.2871  -2.2791  -2.2591  -2.2508  -2.2339  -2.2278  -2.2239  -2.2070
    -2.2032  -2.1955  -2.1765  -2.1518  -2.1386  -2.1281  -2.1207  -2.1198
    -2.1167  -2.1111  -2.1090  -2.0965  -2.0930  -2.0916  -2.0873  -2.0840
    -2.0826  -2.0777  -2.0723  -2.0578  -2.0541  -2.0527  -2.0489  -2.0455
    -2.0419  -2.0245  -2.0184  -2.0086  -2.0073  -2.0000  -1.9994  -1.9632
    -1.9317  -1.9297  -1.8948  -1.8861  -1.8794  -1.8718  -1.8636  -1.8483
    -1.8431  -1.8324  -1.8289  -1.8270  -1.8238  -1.8231  -1.8195  -1.7898
    -1.7889  -1.7878  -1.7461  -1.7441  -1.7093  -1.7006  -1.6608  -1.6568
    -1.6442  -1.6248  -1.6173  -1.6146  -1.6119  -1.5987  -1.5857  -1.5811
    -1.5762  -1.5750  -1.5713  -1.5704  -1.5681  -1.5672  -1.5509  -1.5461
    -1.5351  -1.5210  -1.5062  -1.5043  -1.4871  -1.4750  -1.4716  -1.4695
    -1.4690  -1.4631  -1.4491  -1.4400  -1.4300  -1.4261  -1.4168  -1.4069
    -1.3952  -1.3894  -1.3662  -1.3621  -1.3553  -1.3510  -1.3258  -1.3159
    -1.3102  -1.3062  -1.3048  -1.3002  -1.2814  -1.2770  -1.2725  -1.2671
    -1.2585  -1.2530  -1.2489  -1.2439  -1.2422  -1.2328  -1.2280  -1.2195
    -1.2123  -1.2109  -1.2063  -1.1970  -1.1950  -1.1881  -1.1696  -1.1491
    -1.1438  -1.1411  -1.1401  -1.1372  -1.1282  -1.1012  -1.0828  -1.0806
    -1.0803  -1.0790  -1.0753  -1.0714  -1.0618  -1.0568  -1.0533  -1.0215
    -1.0192  -1.0130  -1.0114  -0.9912  -0.9896  -0.9799  -0.9529  -0.9423
    -0.9191  -0.9135  -0.8890  -0.8879  -0.8838  -0.8835  -0.8807  -0.8757
    -0.8730  -0.8726  -0.8689  -0.8668  -0.8373  -0.8354  -0.8171  -0.8149
    -0.8113  -0.8105  -0.8087  -0.8045  -0.7920  -0.5214  -0.5039  -0.4460
    -0.4412  -0.4107  -0.2485  -0.1862  -0.1832  -0.1462   0.1359   0.1372
     0.4668   0.4703   0.5630   0.5643   0.6043   0.6073   0.7510   0.7536
     0.8709   0.8754   0.9723   1.5620   1.5770   1.5790   1.6166   1.6235
     1.6715   1.6814   1.7468   1.7516   1.9533   1.9569   2.1963   2.2676
     2.2751   2.2868   2.6680   2.6759   2.7394   2.7410   2.7467   2.7504
     2.8989   2.9002   2.9633   3.0442   3.0494   3.2739   3.2765   3.4076
     3.4324   3.4403   3.7063   3.7120   3.8209   3.8395   3.8420   3.9182
     3.9433   4.0232   4.0303   4.2593   4.2656   4.3551   4.3606   4.4723
     4.4783   4.4977   4.5100   4.6733   5.1865   5.3259   5.3396   5.4058
     5.4117   5.5402   5.5834   5.5921   5.6560   5.7006   5.7089   5.7131
     5.7541   5.7573   5.7595   5.8070   6.0248   6.0649   6.0817   6.0959
     6.0989   6.1041   6.1089   6.1101   6.1111   6.1561   6.1786   6.2132

          k =-0.2500 0.2500 0.2500 (167588 PWs)   bands (ev):

   -19.2664  -7.4505  -6.8610  -6.3354  -6.3339  -5.9060  -5.4963  -5.4051
    -5.4033  -5.2096  -5.2076  -5.0912  -5.0888  -5.0125  -4.9888  -4.9163
    -4.8325  -4.8273  -4.7890  -4.7880  -4.6294  -4.6126  -4.6113  -4.6088
    -4.6023  -4.5477  -4.5471  -4.5365  -4.5341  -4.4982  -4.4876  -4.4841
    -4.4446  -4.4428  -4.4108  -4.4093  -4.3609  -4.3552  -4.3474  -4.3455
    -4.3391  -4.3269  -4.3258  -4.2869  -4.2687  -4.2667  -4.2600  -4.2589
    -4.2282  -4.1797  -4.1664  -4.1626  -4.1612  -4.1570  -4.1517  -4.1468
    -4.1454  -4.1435  -4.0840  -4.0781  -4.0357  -4.0282  -4.0177  -3.9934
    -3.9916  -3.9765  -3.9679  -3.9676  -3.9649  -3.9613  -3.9142  -3.9125
    -3.9011  -3.8978  -3.8021  -3.7944  -3.7922  -3.7856  -3.7523  -3.7475
    -3.7284  -3.7068  -3.6986  -3.6731  -3.6663  -3.6572  -3.6463  -3.6386
    -3.6312  -3.5977  -3.5773  -3.5735  -3.5506  -3.5386  -3.5358  -3.5297
    -3.5292  -3.5152  -3.5023  -3.4922  -3.4669  -3.4504  -3.4476  -3.4367
    -3.4127  -3.4067  -3.3944  -3.3651  -3.3636  -3.3289  -3.3258  -3.2911
    -3.2829  -3.2809  -3.2694  -3.2683  -3.2628  -3.2599  -3.2290  -3.2139
    -3.1764  -3.1735  -3.1652  -3.1554  -3.1549  -3.1500  -3.1313  -3.1305
    -3.1103  -3.1094  -3.1067  -3.0826  -3.0820  -3.0747  -3.0723  -3.0684
    -3.0346  -3.0323  -2.9991  -2.9950  -2.9943  -2.9925  -2.9903  -2.9117
    -2.9048  -2.9029  -2.8998  -2.8961  -2.8952  -2.8920  -2.8906  -2.8895
    -2.8891  -2.8806  -2.8726  -2.8583  -2.8548  -2.8510  -2.8485  -2.8385
    -2.8351  -2.7982  -2.7946  -2.7944  -2.7901  -2.7882  -2.7728  -2.7705
    -2.7646  -2.7628  -2.7595  -2.7056  -2.7016  -2.6987  -2.6955  -2.6917
    -2.6869  -2.6629  -2.6062  -2.6043  -2.6013  -2.5989  -2.5895  -2.5867
    -2.5801  -2.5740  -2.5706  -2.5409  -2.5334  -2.5309  -2.5269  -2.5237
    -2.5220  -2.4872  -2.4859  -2.4774  -2.4755  -2.4731  -2.4705  -2.4315
    -2.4149  -2.4104  -2.3616  -2.3550  -2.3439  -2.3398  -2.3297  -2.3278
    -2.2871  -2.2791  -2.2591  -2.2508  -2.2339  -2.2277  -2.2239  -2.2070
    -2.2032  -2.1955  -2.1765  -2.1518  -2.1386  -2.1281  -2.1207  -2.1198
    -2.1167  -2.1111  -2.1090  -2.0965  -2.0930  -2.0916  -2.0873  -2.0840
    -2.0826  -2.0777  -2.0723  -2.0578  -2.0541  -2.0527  -2.0489  -2.0455
    -2.0419  -2.0245  -2.0184  -2.0086  -2.0073  -2.0000  -1.9994  -1.9632
    -1.9317  -1.9297  -1.8948  -1.8861  -1.8794  -1.8718  -1.8636  -1.8483
    -1.8431  -1.8324  -1.8289  -1.8270  -1.8238  -1.8231  -1.8195  -1.7898
    -1.7889  -1.7878  -1.7461  -1.7441  -1.7093  -1.7006  -1.6608  -1.6568
    -1.6442  -1.6248  -1.6173  -1.6146  -1.6119  -1.5988  -1.5857  -1.5811
    -1.5762  -1.5750  -1.5713  -1.5703  -1.5681  -1.5672  -1.5509  -1.5461
    -1.5351  -1.5210  -1.5062  -1.5043  -1.4871  -1.4750  -1.4715  -1.4695
    -1.4690  -1.4631  -1.4491  -1.4400  -1.4300  -1.4261  -1.4168  -1.4069
    -1.3952  -1.3894  -1.3662  -1.3621  -1.3553  -1.3510  -1.3258  -1.3159
    -1.3102  -1.3062  -1.3048  -1.3002  -1.2814  -1.2770  -1.2725  -1.2671
    -1.2585  -1.2530  -1.2489  -1.2439  -1.2422  -1.2328  -1.2280  -1.2196
    -1.2123  -1.2109  -1.2063  -1.1970  -1.1950  -1.1881  -1.1696  -1.1491
    -1.1439  -1.1411  -1.1401  -1.1372  -1.1282  -1.1012  -1.0828  -1.0806
    -1.0803  -1.0790  -1.0753  -1.0714  -1.0618  -1.0568  -1.0533  -1.0215
    -1.0192  -1.0130  -1.0114  -0.9912  -0.9896  -0.9799  -0.9529  -0.9423
    -0.9191  -0.9135  -0.8890  -0.8879  -0.8838  -0.8835  -0.8807  -0.8757
    -0.8730  -0.8726  -0.8689  -0.8668  -0.8373  -0.8354  -0.8171  -0.8149
    -0.8113  -0.8105  -0.8087  -0.8045  -0.7919  -0.5214  -0.5039  -0.4460
    -0.4412  -0.4107  -0.2485  -0.1862  -0.1832  -0.1462   0.1359   0.1372
     0.4668   0.4703   0.5630   0.5643   0.6043   0.6073   0.7510   0.7536
     0.8709   0.8754   0.9723   1.5620   1.5770   1.5790   1.6166   1.6235
     1.6715   1.6814   1.7468   1.7516   1.9533   1.9569   2.1963   2.2676
     2.2751   2.2868   2.6680   2.6759   2.7394   2.7410   2.7467   2.7504
     2.8989   2.9002   2.9633   3.0442   3.0494   3.2739   3.2765   3.4076
     3.4324   3.4403   3.7063   3.7120   3.8208   3.8395   3.8420   3.9182
     3.9433   4.0232   4.0303   4.2593   4.2656   4.3551   4.3606   4.4723
     4.4783   4.4977   4.5100   4.6734   5.1773   5.3231   5.3351   5.4058
     5.4110   5.5442   5.5835   5.5922   5.6633   5.7047   5.7088   5.7345
     5.7540   5.7593   5.7666   5.8071   6.0466   6.0651   6.0822   6.0922
     6.1003   6.1042   6.1082   6.1109   6.1163   6.1415   6.1953   6.2348

     the Fermi energy is     0.8250 ev

!    total energy              =   -7425.26891088 Ry
     Harris-Foulkes estimate   =   -7425.26891087 Ry
     estimated scf accuracy    <          4.5E-09 Ry

     The total energy is the sum of the following terms:

     one-electron contribution =  -48810.95901117 Ry
     hartree contribution      =   24955.11902953 Ry
     xc contribution           =   -3604.28105324 Ry
     ewald contribution        =   20034.85459080 Ry
     smearing contrib. (-TS)   =      -0.00246680 Ry

     convergence has been achieved in  29 iterations

     Writing output data file 3997318.save

     init_run     :    116.07s CPU    123.54s WALL (       1 calls)
     electrons    :   8506.00s CPU   8930.90s WALL (       1 calls)

     Called by init_run:
     wfcinit      :     82.10s CPU     88.70s WALL (       1 calls)
     potinit      :      7.41s CPU      7.78s WALL (       1 calls)

     Called by electrons:
     c_bands      :   6760.28s CPU   7097.05s WALL (      30 calls)
     sum_band     :   1122.84s CPU   1193.44s WALL (      30 calls)
     v_of_rho     :    128.52s CPU    139.63s WALL (      30 calls)
     newd         :    507.53s CPU    512.47s WALL (      30 calls)
     mix_rho      :      4.10s CPU      4.50s WALL (      30 calls)
     vdW_energy   :     11.32s CPU     12.11s WALL (      30 calls)
     vdW_ffts     :     64.41s CPU     69.86s WALL (      60 calls)
     vdW_v        :     16.73s CPU     17.86s WALL (      30 calls)

     Called by c_bands:
     init_us_2    :      9.78s CPU     10.12s WALL (     366 calls)
     cegterg      :   6604.33s CPU   6939.92s WALL (     180 calls)

     Called by *egterg:
     h_psi        :   2599.82s CPU   2893.96s WALL (     871 calls)
     s_psi        :    382.58s CPU    384.75s WALL (     871 calls)
     g_psi        :      4.92s CPU      4.93s WALL (     685 calls)
     cdiaghg      :   1642.17s CPU   1647.19s WALL (     859 calls)

     Called by h_psi:
     add_vuspsi   :    383.57s CPU    385.77s WALL (     871 calls)

     General routines
     calbec       :    823.76s CPU    826.49s WALL (    1051 calls)
     fft          :    343.74s CPU    354.65s WALL (    1980 calls)
     ffts         :      2.16s CPU      2.41s WALL (      60 calls)
     fftw         :   1883.39s CPU   2218.71s WALL (  486302 calls)
     interpolate  :      5.25s CPU      5.91s WALL (      60 calls)
     davcio       :      0.00s CPU      0.11s WALL (       6 calls)

     Parallel routines
     fft_scatter  :   1611.50s CPU   1898.80s WALL (  488342 calls)

     PWSCF        :     2h23m CPU        2h31m WALL


   This run was terminated on:   1:41:53  30Jun2015            

=------------------------------------------------------------------------------=
   JOB DONE.
=------------------------------------------------------------------------------=
