Setting SGE environment for SCC

     Program PWSCF v.5.1.2 starts on 24Jun2015 at 21: 5:10 

     This program is part of the open-source Quantum ESPRESSO suite
     for quantum simulation of materials; please cite
         "P. Giannozzi et al., J. Phys.:Condens. Matter 21 395502 (2009);
          URL http://www.quantum-espresso.org", 
     in publications or presentations arising from this work. More details at
     http://www.quantum-espresso.org/quote

     Parallel version (MPI), running on    32 processors
     R & G space division:  proc/nbgrp/npool/nimage =      32
     Reading input from top.O1.Au62.d.2.6.phi.0.psi.180.in
Warning: card &IONS ignored
Warning: card / ignored
Warning: card &CELL ignored
Warning: card / ignored

     Current dimensions of program PWSCF are:
     Max number of different atomic species (ntypx) = 10
     Max number of k-points (npk) =  40000
     Max angular momentum in pseudopotentials (lmaxx) =  3

     IMPORTANT: XC functional enforced from input :
     Exchange-correlation      = VDW-DF ( 1  4  4  0 1 0)
     Any further DFT definition will be discarded
     Please, verify this is what you really want


     Subspace diagonalization in iterative solution of the eigenvalue problem:
     a serial algorithm will be used


     Parallelization info
     --------------------
     sticks:   dense  smooth     PW     G-vecs:    dense   smooth      PW
     Min         578     289     74               118518    41891    5486
     Max         579     290     75               118533    41932    5497
     Sum       18505    9265   2385              3792731  1341081  175711


     Title: 
     top.O1.Au62.d.2.6.phi.0.psi.180                                            


     bravais-lattice index     =            8
     lattice parameter (alat)  =      24.1233  a.u.
     unit-cell volume          =   28076.2361 (a.u.)^3
     number of atoms/cell      =           75
     number of atomic types    =            3
     number of electrons       =       800.00
     number of Kohn-Sham states=          480
     kinetic-energy cutoff     =      50.0000  Ry
     charge density cutoff     =     400.0000  Ry
     convergence threshold     =      1.0E-08
     mixing beta               =       0.7000
     number of iterations used =            8  plain     mixing
     Exchange-correlation      = VDW-DF ( 1  4  4  0 1 0)

     celldm(1)=  24.123277  celldm(2)=   1.000000  celldm(3)=   2.000000
     celldm(4)=   0.000000  celldm(5)=   0.000000  celldm(6)=   0.000000

     crystal axes: (cart. coord. in units of alat)
               a(1) = (   1.000000   0.000000   0.000000 )  
               a(2) = (   0.000000   1.000000   0.000000 )  
               a(3) = (   0.000000   0.000000   2.000000 )  

     reciprocal axes: (cart. coord. in units 2 pi/alat)
               b(1) = (  1.000000  0.000000  0.000000 )  
               b(2) = (  0.000000  1.000000  0.000000 )  
               b(3) = (  0.000000  0.000000  0.500000 )  


     PseudoPot. # 1 for Au read from file:
     /home/scc/andrejb/qe/pseudo/Au.pbe-nd-van.UPF
     MD5 check sum: 458681b50f36d87ef23c61b04bba420a
     Pseudo is Ultrasoft + core correction, Zval = 11.0
     Generated by new atomic code, or converted to UPF format
     Using radial grid of  985 points,  3 beta functions with: 
                l(1) =   1
                l(2) =   2
                l(3) =   2
     Q(r) pseudized with  8 coefficients,  rinner =    1.100   1.100   1.100
                                                       1.100   1.100

     PseudoPot. # 2 for H  read from file:
     /home/scc/andrejb/qe/pseudo/H.pbe-van_ak.UPF
     MD5 check sum: 403db7282739603aa925980fa9b8608d
     Pseudo is Ultrasoft, Zval =  1.0
     Generated by new atomic code, or converted to UPF format
     Using radial grid of  615 points,  1 beta functions with: 
                l(1) =   0
     Q(r) pseudized with  8 coefficients,  rinner =    0.800

     PseudoPot. # 3 for O  read from file:
     /home/scc/andrejb/qe/pseudo/O.pbe-van_ak.UPF
     MD5 check sum: 4b8c549914a63cae506c6ff22b5af4fe
     Pseudo is Ultrasoft, Zval =  6.0
     Generated by new atomic code, or converted to UPF format
     Using radial grid of  737 points,  4 beta functions with: 
                l(1) =   0
                l(2) =   0
                l(3) =   1
                l(4) =   1
     Q(r) pseudized with  8 coefficients,  rinner =    0.800   0.800   0.800


     vdW kernel table read from file vdW_kernel_table
     MD5 check sum: 48e77a2e26edf626eeb0eaa751ad5cac

     atomic species   valence    mass     pseudopotential
        Au            11.00   196.96657     Au( 1.00)
        H              1.00     1.01000     H ( 1.00)
        O              6.00    16.00000     O ( 1.00)

     No symmetry found



   Cartesian axes

     site n.     atom                  positions (alat units)
         1           O   tau(   1) = (   0.4998324   0.3332216   0.7029927  )
         2           H   tau(   2) = (   0.4527548   0.3723930   0.6574988  )
         3           H   tau(   3) = (   0.5454827   0.2952199   0.6551350  )
         4           Au  tau(   4) = (   0.0000000   0.0000000   0.0000000  )
         5           Au  tau(   5) = (   0.3332217   0.0000000   0.0000000  )
         6           Au  tau(   6) = (   0.6664435   0.0000000   0.0000000  )
         7           Au  tau(   7) = (   0.1666109   0.1666109   0.0000000  )
         8           Au  tau(   8) = (   0.4998326   0.1666109   0.0000000  )
         9           Au  tau(   9) = (   0.8330542   0.1666109   0.0000000  )
        10           Au  tau(  10) = (   0.0000000   0.3332217   0.0000000  )
        11           Au  tau(  11) = (   0.3332217   0.3332217   0.0000000  )
        12           Au  tau(  12) = (   0.6664435   0.3332217   0.0000000  )
        13           Au  tau(  13) = (   0.1666109   0.4998326   0.0000000  )
        14           Au  tau(  14) = (   0.4998326   0.4998326   0.0000000  )
        15           Au  tau(  15) = (   0.8330542   0.4998326   0.0000000  )
        16           Au  tau(  16) = (   0.0000000   0.6664435   0.0000000  )
        17           Au  tau(  17) = (   0.3332217   0.6664435   0.0000000  )
        18           Au  tau(  18) = (   0.6664435   0.6664435   0.0000000  )
        19           Au  tau(  19) = (   0.1666109   0.8330542   0.0000000  )
        20           Au  tau(  20) = (   0.4998326   0.8330542   0.0000000  )
        21           Au  tau(  21) = (   0.8330542   0.8330542   0.0000000  )
        22           Au  tau(  22) = (   0.1666109   0.0000000   0.1666109  )
        23           Au  tau(  23) = (   0.4998326   0.0000000   0.1666109  )
        24           Au  tau(  24) = (   0.8330542   0.0000000   0.1666109  )
        25           Au  tau(  25) = (   0.0000000   0.1666109   0.1666109  )
        26           Au  tau(  26) = (   0.3332217   0.1666109   0.1666109  )
        27           Au  tau(  27) = (   0.6664435   0.1666109   0.1666109  )
        28           Au  tau(  28) = (   0.1666109   0.3332217   0.1666109  )
        29           Au  tau(  29) = (   0.4998326   0.3332217   0.1666109  )
        30           Au  tau(  30) = (   0.8330542   0.3332217   0.1666109  )
        31           Au  tau(  31) = (   0.0000000   0.4998326   0.1666109  )
        32           Au  tau(  32) = (   0.3332217   0.4998326   0.1666109  )
        33           Au  tau(  33) = (   0.6664435   0.4998326   0.1666109  )
        34           Au  tau(  34) = (   0.1666109   0.6664435   0.1666109  )
        35           Au  tau(  35) = (   0.4998326   0.6664435   0.1666109  )
        36           Au  tau(  36) = (   0.8330542   0.6664435   0.1666109  )
        37           Au  tau(  37) = (   0.0000000   0.8330542   0.1666109  )
        38           Au  tau(  38) = (   0.3332217   0.8330542   0.1666109  )
        39           Au  tau(  39) = (   0.6664435   0.8330542   0.1666109  )
        40           Au  tau(  40) = (  -0.0000182  -0.0000182   0.3335478  )
        41           Au  tau(  41) = (   0.3332215  -0.0000181   0.3335472  )
        42           Au  tau(  42) = (   0.6664447  -0.0000183   0.3335481  )
        43           Au  tau(  43) = (  -0.0000181   0.3332215   0.3335472  )
        44           Au  tau(  44) = (   0.3332215   0.3332215   0.3335468  )
        45           Au  tau(  45) = (   0.6664445   0.3332215   0.3335478  )
        46           Au  tau(  46) = (  -0.0000183   0.6664447   0.3335481  )
        47           Au  tau(  47) = (   0.3332215   0.6664445   0.3335478  )
        48           Au  tau(  48) = (   0.6664446   0.6664446   0.3335486  )
        49           Au  tau(  49) = (   0.1666097   0.1666097   0.3335483  )
        50           Au  tau(  50) = (   0.4998320   0.1666098   0.3335477  )
        51           Au  tau(  51) = (   0.8330732   0.1666096   0.3335481  )
        52           Au  tau(  52) = (   0.1666098   0.4998320   0.3335477  )
        53           Au  tau(  53) = (   0.4998321   0.4998321   0.3335470  )
        54           Au  tau(  54) = (   0.8330730   0.4998322   0.3335474  )
        55           Au  tau(  55) = (   0.1666096   0.8330732   0.3335481  )
        56           Au  tau(  56) = (   0.4998322   0.8330730   0.3335474  )
        57           Au  tau(  57) = (   0.8330731   0.8330731   0.3335478  )
        58           Au  tau(  58) = (   0.1666104  -0.0000111   0.4993095  )
        59           Au  tau(  59) = (   0.4998323  -0.0000112   0.4993099  )
        60           Au  tau(  60) = (   0.8330661  -0.0000111   0.4993009  )
        61           Au  tau(  61) = (  -0.0000111   0.1666104   0.4993095  )
        62           Au  tau(  62) = (   0.3332214   0.1666106   0.4993185  )
        63           Au  tau(  63) = (   0.6664437   0.1666106   0.4993187  )
        64           Au  tau(  64) = (   0.1666106   0.3332214   0.4993185  )
        65           Au  tau(  65) = (   0.4998324   0.3332216   0.4993185  )
        66           Au  tau(  66) = (   0.8330659   0.3332215   0.4993103  )
        67           Au  tau(  67) = (  -0.0000112   0.4998323   0.4993099  )
        68           Au  tau(  68) = (   0.3332216   0.4998324   0.4993185  )
        69           Au  tau(  69) = (   0.6664436   0.4998325   0.4993187  )
        70           Au  tau(  70) = (   0.1666106   0.6664437   0.4993187  )
        71           Au  tau(  71) = (   0.4998325   0.6664436   0.4993187  )
        72           Au  tau(  72) = (   0.8330658   0.6664438   0.4993102  )
        73           Au  tau(  73) = (  -0.0000111   0.8330661   0.4993009  )
        74           Au  tau(  74) = (   0.3332215   0.8330659   0.4993103  )
        75           Au  tau(  75) = (   0.6664438   0.8330658   0.4993102  )

     number of k points=     6  Marzari-Vanderbilt smearing, width (Ry)=  0.0200
                       cart. coord. in units 2pi/alat
        k(    1) = (   0.2500000   0.2500000   0.0833333), wk =   0.3333333
        k(    2) = (   0.2500000   0.2500000  -0.2500000), wk =   0.3333333
        k(    3) = (  -0.2500000  -0.2500000   0.0833333), wk =   0.3333333
        k(    4) = (  -0.2500000   0.2500000  -0.0833333), wk =   0.3333333
        k(    5) = (   0.2500000  -0.2500000  -0.0833333), wk =   0.3333333
        k(    6) = (  -0.2500000   0.2500000   0.2500000), wk =   0.3333333

     Dense  grid:  3792731 G-vectors     FFT dimensions: ( 160, 160, 320)

     Smooth grid:  1341081 G-vectors     FFT dimensions: ( 120, 120, 225)

     Largest allocated arrays     est. size (Mb)     dimensions
        Kohn-Sham Wavefunctions        38.58 Mb     (    5267,  480)
        NL pseudopotentials            76.03 Mb     (    5267,  946)
        Each V/rho on FFT grid          3.91 Mb     (  256000)
        Each G-vector array             0.90 Mb     (  118520)
        G-vector shells                 0.08 Mb     (   10286)
     Largest temporary arrays     est. size (Mb)     dimensions
        Auxiliary wavefunctions       154.31 Mb     (    5267, 1920)
        Each subspace H/S matrix       56.25 Mb     (    1920, 1920)
        Each <psi_i|beta_j> matrix      6.93 Mb     (     946,  480)
        Arrays for rho mixing          31.25 Mb     (  256000,    8)

     Initial potential from superposition of free atoms
     Check: negative starting charge=   -1.945224

     starting charge  799.16392, renormalised to  800.00000

     negative rho (up, down):  1.947E+00 0.000E+00


     ************************************************************************
     *
     * You are using vdW-DF for exchange-correlation in this calculation.
     * Please cite the following three references that made this development
     * possible:
     *
     *   M. Dion, H. Rydberg, E. Schroder, D. C. Langreth, and
     *   B. I. Lundqvist, Phys. Rev. Lett. 92, 246401 (2004).
     *
     *   T. Thonhauser, V. R. Cooper, S. Li, A. Puzder, P. Hyldgaard, and
     *   D. C. Langreth, Phys. Rev. B 76, 125112 (2007).
     *
     *   G. Roman-Perez and J. M. Soler, Phys. Rev. Lett. 103, 096102 (2009).
     *
     *
     * If you are using vdW-DF2, please also cite:
     *
     *   K. Lee, E. D. Murray, L. Kong, B. I. Lundqvist, and
     *   D. C. Langreth, Phys. Rev. B 82, 081101(R) (2010).
     *
     *
     * If you are calculating the stress with vdW-DF, please also cite:
     *
     *   R. Sabatini, E. Kucukbenli, B. Kolb, T. Thonhauser, and
     *   S. de Gironcoli, J. Phys.: Condens. Matter 24, 424209 (2012).
     *
     ************************************************************************

     Carrying out vdW-DF run using the following parameters:

     Nqs =      20    Nr_points =    1024   r_max =   100.000
     q_mesh =
               0.00001000     0.04494208     0.09755937     0.15916263
               0.23128650     0.31572767     0.41458969     0.53033537
               0.66584808     0.82450364     1.01025438     1.22772762
               1.48234092     1.78043706     2.12944203     2.53805004
               3.01644009     3.57652955     4.23227104     5.00000000

     Gradients computed in reciprocal space

     ************************************************************************


     Starting wfc are  654 randomized atomic wfcs

     total cpu time spent up to now is      124.1 secs

     Self-consistent Calculation

     iteration #  1     ecut=    50.00 Ry     beta=0.70
     Davidson diagonalization with overlap
     ethr =  1.00E-02,  avg # of iterations =  3.0

     Threshold (ethr) on eigenvalues was too large:
     Diagonalizing with lowered threshold

     Davidson diagonalization with overlap
     ethr =  4.07E-04,  avg # of iterations =  2.0

     negative rho (up, down):  1.947E+00 0.000E+00

     total cpu time spent up to now is      576.1 secs

     total energy              =   -7423.06690528 Ry
     Harris-Foulkes estimate   =   -7426.00575526 Ry
     estimated scf accuracy    <       3.63551253 Ry

     iteration #  2     ecut=    50.00 Ry     beta=0.70
     Davidson diagonalization with overlap
     ethr =  4.54E-04,  avg # of iterations = 11.3

     negative rho (up, down):  1.943E+00 0.000E+00

     total cpu time spent up to now is     1310.1 secs

     total energy              =   -7415.68603332 Ry
     Harris-Foulkes estimate   =   -7432.30388535 Ry
     estimated scf accuracy    <      85.49730494 Ry

     iteration #  3     ecut=    50.00 Ry     beta=0.70
     Davidson diagonalization with overlap
     ethr =  4.54E-04,  avg # of iterations =  6.0

     negative rho (up, down):  1.953E+00 0.000E+00

     total cpu time spent up to now is     1766.0 secs

     total energy              =   -7424.03459883 Ry
     Harris-Foulkes estimate   =   -7425.83199491 Ry
     estimated scf accuracy    <       7.58160836 Ry

     iteration #  4     ecut=    50.00 Ry     beta=0.70
     Davidson diagonalization with overlap
     ethr =  4.54E-04,  avg # of iterations =  5.5

     negative rho (up, down):  1.956E+00 0.000E+00

     total cpu time spent up to now is     2030.9 secs

     total energy              =   -7424.76863433 Ry
     Harris-Foulkes estimate   =   -7425.67684113 Ry
     estimated scf accuracy    <       5.11745947 Ry

     iteration #  5     ecut=    50.00 Ry     beta=0.70
     Davidson diagonalization with overlap
     ethr =  4.54E-04,  avg # of iterations =  5.5

     negative rho (up, down):  1.962E+00 0.000E+00

     total cpu time spent up to now is     2294.5 secs

     total energy              =   -7425.04054583 Ry
     Harris-Foulkes estimate   =   -7425.53789365 Ry
     estimated scf accuracy    <       3.63081725 Ry

     iteration #  6     ecut=    50.00 Ry     beta=0.70
     Davidson diagonalization with overlap
     ethr =  4.54E-04,  avg # of iterations =  2.3

     negative rho (up, down):  1.966E+00 0.000E+00

     total cpu time spent up to now is     2508.7 secs

     total energy              =   -7425.23306912 Ry
     Harris-Foulkes estimate   =   -7425.29931945 Ry
     estimated scf accuracy    <       0.24787565 Ry

     iteration #  7     ecut=    50.00 Ry     beta=0.70
     Davidson diagonalization with overlap
     ethr =  3.10E-05,  avg # of iterations =  5.5

     negative rho (up, down):  1.970E+00 0.000E+00

     total cpu time spent up to now is     2772.3 secs

     total energy              =   -7425.24290367 Ry
     Harris-Foulkes estimate   =   -7425.29083475 Ry
     estimated scf accuracy    <       0.25667384 Ry

     iteration #  8     ecut=    50.00 Ry     beta=0.70
     Davidson diagonalization with overlap
     ethr =  3.10E-05,  avg # of iterations =  3.0

     negative rho (up, down):  1.971E+00 0.000E+00

     total cpu time spent up to now is     2994.2 secs

     total energy              =   -7425.25215556 Ry
     Harris-Foulkes estimate   =   -7425.27138715 Ry
     estimated scf accuracy    <       0.08220072 Ry

     iteration #  9     ecut=    50.00 Ry     beta=0.70
     Davidson diagonalization with overlap
     ethr =  1.03E-05,  avg # of iterations =  4.7

     negative rho (up, down):  1.972E+00 0.000E+00

     total cpu time spent up to now is     3234.3 secs

     total energy              =   -7425.25334283 Ry
     Harris-Foulkes estimate   =   -7425.26319736 Ry
     estimated scf accuracy    <       0.03468139 Ry

     iteration # 10     ecut=    50.00 Ry     beta=0.70
     Davidson diagonalization with overlap
     c_bands:  1 eigenvalues not converged
     c_bands:  1 eigenvalues not converged
     ethr =  4.34E-06,  avg # of iterations =  9.8

     negative rho (up, down):  1.972E+00 0.000E+00

     total cpu time spent up to now is     3533.9 secs

     total energy              =   -7425.25485225 Ry
     Harris-Foulkes estimate   =   -7425.25772823 Ry
     estimated scf accuracy    <       0.00913417 Ry

     iteration # 11     ecut=    50.00 Ry     beta=0.70
     Davidson diagonalization with overlap
     c_bands:  1 eigenvalues not converged
     ethr =  1.14E-06,  avg # of iterations =  6.7

     negative rho (up, down):  1.973E+00 0.000E+00

     total cpu time spent up to now is     3805.8 secs

     total energy              =   -7425.25525940 Ry
     Harris-Foulkes estimate   =   -7425.25638252 Ry
     estimated scf accuracy    <       0.00375926 Ry

     iteration # 12     ecut=    50.00 Ry     beta=0.70
     Davidson diagonalization with overlap
     ethr =  4.70E-07,  avg # of iterations =  2.3

     negative rho (up, down):  1.974E+00 0.000E+00

     total cpu time spent up to now is     4012.2 secs

     total energy              =   -7425.25515365 Ry
     Harris-Foulkes estimate   =   -7425.25574725 Ry
     estimated scf accuracy    <       0.00105507 Ry

     iteration # 13     ecut=    50.00 Ry     beta=0.70
     Davidson diagonalization with overlap
     ethr =  1.32E-07,  avg # of iterations = 10.3

     negative rho (up, down):  1.974E+00 0.000E+00

     total cpu time spent up to now is     4466.7 secs

     total energy              =   -7425.25490106 Ry
     Harris-Foulkes estimate   =   -7425.25614125 Ry
     estimated scf accuracy    <       0.00539215 Ry

     iteration # 14     ecut=    50.00 Ry     beta=0.70
     Davidson diagonalization with overlap
     ethr =  1.32E-07,  avg # of iterations =  2.7

     negative rho (up, down):  1.974E+00 0.000E+00

     total cpu time spent up to now is     4738.9 secs

     total energy              =   -7425.25548140 Ry
     Harris-Foulkes estimate   =   -7425.25551501 Ry
     estimated scf accuracy    <       0.00008601 Ry

     iteration # 15     ecut=    50.00 Ry     beta=0.70
     Davidson diagonalization with overlap
     ethr =  1.08E-08,  avg # of iterations =  3.0

     negative rho (up, down):  1.974E+00 0.000E+00

     total cpu time spent up to now is     5002.0 secs

     total energy              =   -7425.25545553 Ry
     Harris-Foulkes estimate   =   -7425.25555775 Ry
     estimated scf accuracy    <       0.00063765 Ry

     iteration # 16     ecut=    50.00 Ry     beta=0.70
     Davidson diagonalization with overlap
     ethr =  1.08E-08,  avg # of iterations =  3.0

     negative rho (up, down):  1.974E+00 0.000E+00

     total cpu time spent up to now is     5236.8 secs

     total energy              =   -7425.25549490 Ry
     Harris-Foulkes estimate   =   -7425.25551847 Ry
     estimated scf accuracy    <       0.00015049 Ry

     iteration # 17     ecut=    50.00 Ry     beta=0.70
     Davidson diagonalization with overlap
     ethr =  1.08E-08,  avg # of iterations =  1.0

     negative rho (up, down):  1.974E+00 0.000E+00

     total cpu time spent up to now is     5429.8 secs

     total energy              =   -7425.25550523 Ry
     Harris-Foulkes estimate   =   -7425.25551108 Ry
     estimated scf accuracy    <       0.00003279 Ry

     iteration # 18     ecut=    50.00 Ry     beta=0.70
     Davidson diagonalization with overlap
     ethr =  4.10E-09,  avg # of iterations =  2.0

     negative rho (up, down):  1.974E+00 0.000E+00

     total cpu time spent up to now is     5641.1 secs

     total energy              =   -7425.25550711 Ry
     Harris-Foulkes estimate   =   -7425.25550997 Ry
     estimated scf accuracy    <       0.00001113 Ry

     iteration # 19     ecut=    50.00 Ry     beta=0.70
     Davidson diagonalization with overlap
     ethr =  1.39E-09,  avg # of iterations =  2.0

     negative rho (up, down):  1.974E+00 0.000E+00

     total cpu time spent up to now is     5842.3 secs

     total energy              =   -7425.25550791 Ry
     Harris-Foulkes estimate   =   -7425.25550958 Ry
     estimated scf accuracy    <       0.00000875 Ry

     iteration # 20     ecut=    50.00 Ry     beta=0.70
     Davidson diagonalization with overlap
     ethr =  1.09E-09,  avg # of iterations =  2.0

     negative rho (up, down):  1.974E+00 0.000E+00

     total cpu time spent up to now is     6044.0 secs

     total energy              =   -7425.25550880 Ry
     Harris-Foulkes estimate   =   -7425.25550891 Ry
     estimated scf accuracy    <       0.00000052 Ry

     iteration # 21     ecut=    50.00 Ry     beta=0.70
     Davidson diagonalization with overlap
     ethr =  6.48E-11,  avg # of iterations =  3.0

     negative rho (up, down):  1.974E+00 0.000E+00

     total cpu time spent up to now is     6262.6 secs

     total energy              =   -7425.25550887 Ry
     Harris-Foulkes estimate   =   -7425.25550891 Ry
     estimated scf accuracy    <       0.00000016 Ry

     iteration # 22     ecut=    50.00 Ry     beta=0.70
     Davidson diagonalization with overlap
     ethr =  1.97E-11,  avg # of iterations =  3.0

     negative rho (up, down):  1.974E+00 0.000E+00

     total cpu time spent up to now is     6506.1 secs

     total energy              =   -7425.25550889 Ry
     Harris-Foulkes estimate   =   -7425.25550894 Ry
     estimated scf accuracy    <       0.00000020 Ry

     iteration # 23     ecut=    50.00 Ry     beta=0.70
     Davidson diagonalization with overlap
     ethr =  1.97E-11,  avg # of iterations =  3.0

     negative rho (up, down):  1.974E+00 0.000E+00

     total cpu time spent up to now is     6729.9 secs

     total energy              =   -7425.25550890 Ry
     Harris-Foulkes estimate   =   -7425.25550892 Ry
     estimated scf accuracy    <       0.00000004 Ry

     iteration # 24     ecut=    50.00 Ry     beta=0.70
     Davidson diagonalization with overlap
     ethr =  5.03E-12,  avg # of iterations =  2.0

     negative rho (up, down):  1.974E+00 0.000E+00

     total cpu time spent up to now is     6960.3 secs

     total energy              =   -7425.25550892 Ry
     Harris-Foulkes estimate   =   -7425.25550892 Ry
     estimated scf accuracy    <       0.00000004 Ry

     iteration # 25     ecut=    50.00 Ry     beta=0.70
     Davidson diagonalization with overlap
     ethr =  4.65E-12,  avg # of iterations =  2.0

     negative rho (up, down):  1.974E+00 0.000E+00

     total cpu time spent up to now is     7161.4 secs

     End of self-consistent calculation

          k = 0.2500 0.2500 0.0833 (167653 PWs)   bands (ev):

   -19.7739  -7.6155  -6.9021  -6.3753  -6.3716  -5.9442  -5.5467  -5.4453
    -5.4398  -5.2462  -5.2445  -5.1533  -5.1263  -5.0475  -5.0332  -4.9554
    -4.8673  -4.8660  -4.8340  -4.8232  -4.6845  -4.6652  -4.6459  -4.6449
    -4.6374  -4.6182  -4.5831  -4.5760  -4.5705  -4.5537  -4.5333  -4.5211
    -4.4886  -4.4782  -4.4465  -4.4442  -4.4256  -4.3942  -4.3917  -4.3817
    -4.3798  -4.3743  -4.3608  -4.3473  -4.3183  -4.3029  -4.2993  -4.2946
    -4.2930  -4.2587  -4.2145  -4.1978  -4.1973  -4.1929  -4.1897  -4.1823
    -4.1803  -4.1786  -4.1543  -4.1189  -4.1147  -4.0650  -4.0538  -4.0487
    -4.0277  -4.0259  -4.0039  -4.0023  -3.9997  -3.9981  -3.9900  -3.9483
    -3.9397  -3.9362  -3.9343  -3.8324  -3.8294  -3.8221  -3.8166  -3.7906
    -3.7815  -3.7570  -3.7348  -3.7258  -3.7024  -3.6994  -3.6834  -3.6822
    -3.6733  -3.6683  -3.6128  -3.6112  -3.6046  -3.5747  -3.5731  -3.5711
    -3.5649  -3.5643  -3.5394  -3.5387  -3.5032  -3.4943  -3.4877  -3.4811
    -3.4511  -3.4449  -3.4331  -3.4029  -3.3997  -3.3655  -3.3624  -3.3295
    -3.3181  -3.3162  -3.3067  -3.3049  -3.2978  -3.2957  -3.2690  -3.2485
    -3.2127  -3.2101  -3.2008  -3.1918  -3.1903  -3.1855  -3.1691  -3.1673
    -3.1477  -3.1449  -3.1440  -3.1190  -3.1185  -3.1113  -3.1092  -3.1040
    -3.0698  -3.0690  -3.0391  -3.0329  -3.0315  -3.0293  -3.0257  -2.9483
    -2.9442  -2.9392  -2.9373  -2.9327  -2.9316  -2.9288  -2.9253  -2.9242
    -2.9237  -2.9157  -2.9076  -2.8967  -2.8908  -2.8864  -2.8807  -2.8746
    -2.8725  -2.8370  -2.8304  -2.8296  -2.8269  -2.8249  -2.8085  -2.8067
    -2.8014  -2.7999  -2.7943  -2.7470  -2.7393  -2.7354  -2.7319  -2.7278
    -2.7204  -2.7008  -2.6445  -2.6420  -2.6363  -2.6336  -2.6250  -2.6234
    -2.6181  -2.6101  -2.6067  -2.5844  -2.5747  -2.5710  -2.5683  -2.5605
    -2.5591  -2.5256  -2.5250  -2.5209  -2.5131  -2.5078  -2.5067  -2.4792
    -2.4569  -2.4400  -2.4045  -2.3918  -2.3834  -2.3784  -2.3666  -2.3647
    -2.3294  -2.3167  -2.2966  -2.2949  -2.2734  -2.2641  -2.2592  -2.2449
    -2.2396  -2.2323  -2.2081  -2.1980  -2.1787  -2.1698  -2.1573  -2.1559
    -2.1545  -2.1482  -2.1469  -2.1323  -2.1300  -2.1280  -2.1250  -2.1213
    -2.1178  -2.1147  -2.1118  -2.0964  -2.0901  -2.0875  -2.0856  -2.0810
    -2.0779  -2.0617  -2.0564  -2.0446  -2.0444  -2.0355  -2.0300  -1.9964
    -1.9679  -1.9656  -1.9325  -1.9314  -1.9221  -1.9099  -1.9084  -1.8925
    -1.8803  -1.8708  -1.8673  -1.8655  -1.8594  -1.8586  -1.8542  -1.8252
    -1.8235  -1.8196  -1.7897  -1.7817  -1.7478  -1.7440  -1.7356  -1.6929
    -1.6825  -1.6722  -1.6605  -1.6493  -1.6483  -1.6369  -1.6267  -1.6166
    -1.6137  -1.6120  -1.6072  -1.6053  -1.6043  -1.6027  -1.5878  -1.5815
    -1.5646  -1.5588  -1.5576  -1.5453  -1.5419  -1.5112  -1.5090  -1.5056
    -1.5053  -1.4980  -1.4858  -1.4767  -1.4653  -1.4629  -1.4528  -1.4449
    -1.4257  -1.4228  -1.4154  -1.4036  -1.3917  -1.3910  -1.3771  -1.3508
    -1.3468  -1.3422  -1.3408  -1.3393  -1.3227  -1.3133  -1.3119  -1.3066
    -1.2940  -1.2911  -1.2852  -1.2804  -1.2793  -1.2682  -1.2664  -1.2564
    -1.2472  -1.2465  -1.2424  -1.2311  -1.2257  -1.2252  -1.2210  -1.1851
    -1.1769  -1.1754  -1.1731  -1.1715  -1.1703  -1.1398  -1.1195  -1.1163
    -1.1160  -1.1143  -1.1120  -1.1075  -1.1020  -1.0913  -1.0844  -1.0586
    -1.0488  -1.0482  -1.0434  -1.0265  -1.0261  -1.0158  -0.9919  -0.9774
    -0.9551  -0.9500  -0.9245  -0.9235  -0.9206  -0.9192  -0.9149  -0.9095
    -0.9086  -0.9065  -0.9030  -0.9004  -0.8729  -0.8716  -0.8560  -0.8521
    -0.8474  -0.8447  -0.8443  -0.8279  -0.8166  -0.5620  -0.5376  -0.4853
    -0.4588  -0.4445  -0.2830  -0.2204  -0.2200  -0.1725   0.0953   0.1092
     0.4279   0.4477   0.5255   0.5293   0.5686   0.5727   0.7101   0.7313
     0.8341   0.8397   0.9400   1.5281   1.5386   1.5413   1.5696   1.5884
     1.6297   1.6531   1.7107   1.7265   1.9161   1.9219   2.1600   2.2333
     2.2416   2.2516   2.6303   2.6430   2.6991   2.7065   2.7124   2.7136
     2.8602   2.8640   2.9191   3.0064   3.0292   3.2394   3.2523   3.3712
     3.3975   3.4055   3.6712   3.6845   3.7822   3.8024   3.8047   3.8891
     3.9045   3.9873   3.9912   4.2256   4.2265   4.3148   4.3258   4.4296
     4.4461   4.4650   4.4717   4.6364   5.2754   5.2803   5.3649   5.3722
     5.3937   5.5519   5.5612   5.6240   5.6576   5.6740   5.6827   5.7191
     5.7202   5.7300   5.7393   5.7691   6.0031   6.0393   6.0509   6.0627
     6.0642   6.0648   6.0743   6.0785   6.1569   6.1728   6.1755   6.1850

          k = 0.2500 0.2500-0.2500 (167588 PWs)   bands (ev):

   -19.7739  -7.6155  -6.9021  -6.3753  -6.3716  -5.9442  -5.5467  -5.4453
    -5.4398  -5.2462  -5.2445  -5.1533  -5.1263  -5.0475  -5.0332  -4.9554
    -4.8673  -4.8660  -4.8340  -4.8232  -4.6845  -4.6652  -4.6459  -4.6449
    -4.6375  -4.6182  -4.5832  -4.5760  -4.5705  -4.5537  -4.5333  -4.5211
    -4.4886  -4.4782  -4.4465  -4.4442  -4.4256  -4.3942  -4.3917  -4.3817
    -4.3798  -4.3743  -4.3608  -4.3473  -4.3183  -4.3029  -4.2993  -4.2946
    -4.2930  -4.2587  -4.2145  -4.1978  -4.1973  -4.1929  -4.1897  -4.1823
    -4.1803  -4.1786  -4.1543  -4.1189  -4.1147  -4.0650  -4.0538  -4.0487
    -4.0277  -4.0259  -4.0039  -4.0023  -3.9997  -3.9981  -3.9900  -3.9483
    -3.9397  -3.9362  -3.9343  -3.8324  -3.8294  -3.8221  -3.8166  -3.7906
    -3.7815  -3.7570  -3.7348  -3.7259  -3.7024  -3.6994  -3.6834  -3.6822
    -3.6733  -3.6683  -3.6128  -3.6112  -3.6046  -3.5747  -3.5731  -3.5711
    -3.5649  -3.5643  -3.5394  -3.5387  -3.5032  -3.4943  -3.4877  -3.4811
    -3.4511  -3.4449  -3.4331  -3.4029  -3.3997  -3.3655  -3.3624  -3.3295
    -3.3181  -3.3162  -3.3067  -3.3049  -3.2978  -3.2957  -3.2690  -3.2485
    -3.2127  -3.2101  -3.2008  -3.1918  -3.1903  -3.1855  -3.1692  -3.1673
    -3.1477  -3.1449  -3.1440  -3.1189  -3.1185  -3.1112  -3.1092  -3.1040
    -3.0698  -3.0690  -3.0391  -3.0329  -3.0315  -3.0293  -3.0257  -2.9483
    -2.9442  -2.9392  -2.9373  -2.9327  -2.9316  -2.9288  -2.9253  -2.9242
    -2.9237  -2.9157  -2.9076  -2.8967  -2.8908  -2.8864  -2.8807  -2.8746
    -2.8725  -2.8370  -2.8304  -2.8296  -2.8269  -2.8249  -2.8085  -2.8067
    -2.8014  -2.7999  -2.7944  -2.7470  -2.7393  -2.7354  -2.7319  -2.7278
    -2.7204  -2.7008  -2.6445  -2.6420  -2.6362  -2.6336  -2.6250  -2.6234
    -2.6181  -2.6101  -2.6067  -2.5844  -2.5747  -2.5710  -2.5683  -2.5605
    -2.5591  -2.5256  -2.5250  -2.5209  -2.5131  -2.5078  -2.5067  -2.4792
    -2.4569  -2.4400  -2.4045  -2.3918  -2.3834  -2.3784  -2.3666  -2.3647
    -2.3294  -2.3167  -2.2966  -2.2949  -2.2734  -2.2641  -2.2592  -2.2449
    -2.2396  -2.2323  -2.2081  -2.1980  -2.1787  -2.1698  -2.1573  -2.1559
    -2.1545  -2.1482  -2.1469  -2.1323  -2.1300  -2.1280  -2.1250  -2.1213
    -2.1178  -2.1147  -2.1118  -2.0964  -2.0901  -2.0875  -2.0856  -2.0810
    -2.0779  -2.0618  -2.0564  -2.0446  -2.0444  -2.0355  -2.0300  -1.9964
    -1.9679  -1.9656  -1.9325  -1.9314  -1.9221  -1.9099  -1.9084  -1.8925
    -1.8803  -1.8708  -1.8673  -1.8655  -1.8594  -1.8586  -1.8542  -1.8252
    -1.8235  -1.8196  -1.7897  -1.7817  -1.7478  -1.7440  -1.7356  -1.6929
    -1.6825  -1.6722  -1.6605  -1.6493  -1.6483  -1.6369  -1.6267  -1.6166
    -1.6137  -1.6120  -1.6072  -1.6053  -1.6043  -1.6027  -1.5878  -1.5815
    -1.5646  -1.5588  -1.5576  -1.5453  -1.5419  -1.5112  -1.5090  -1.5056
    -1.5053  -1.4980  -1.4858  -1.4767  -1.4653  -1.4629  -1.4528  -1.4449
    -1.4257  -1.4228  -1.4154  -1.4036  -1.3917  -1.3910  -1.3771  -1.3508
    -1.3468  -1.3422  -1.3408  -1.3393  -1.3227  -1.3133  -1.3119  -1.3066
    -1.2940  -1.2911  -1.2852  -1.2804  -1.2793  -1.2682  -1.2664  -1.2564
    -1.2472  -1.2465  -1.2424  -1.2311  -1.2257  -1.2252  -1.2210  -1.1851
    -1.1769  -1.1754  -1.1731  -1.1715  -1.1703  -1.1398  -1.1195  -1.1163
    -1.1160  -1.1143  -1.1120  -1.1075  -1.1020  -1.0913  -1.0844  -1.0586
    -1.0488  -1.0482  -1.0434  -1.0265  -1.0261  -1.0158  -0.9919  -0.9774
    -0.9551  -0.9500  -0.9245  -0.9235  -0.9206  -0.9192  -0.9149  -0.9095
    -0.9086  -0.9065  -0.9030  -0.9004  -0.8730  -0.8716  -0.8560  -0.8521
    -0.8474  -0.8447  -0.8443  -0.8279  -0.8166  -0.5620  -0.5376  -0.4853
    -0.4588  -0.4445  -0.2830  -0.2204  -0.2200  -0.1725   0.0953   0.1092
     0.4279   0.4477   0.5255   0.5293   0.5686   0.5727   0.7101   0.7313
     0.8341   0.8397   0.9400   1.5281   1.5386   1.5413   1.5696   1.5884
     1.6297   1.6531   1.7107   1.7265   1.9161   1.9219   2.1600   2.2333
     2.2416   2.2516   2.6303   2.6430   2.6991   2.7065   2.7124   2.7136
     2.8602   2.8640   2.9191   3.0064   3.0292   3.2394   3.2523   3.3712
     3.3975   3.4055   3.6712   3.6845   3.7822   3.8024   3.8048   3.8891
     3.9045   3.9873   3.9912   4.2256   4.2265   4.3148   4.3258   4.4296
     4.4461   4.4650   4.4717   4.6365   5.2755   5.2802   5.3501   5.3649
     5.3904   5.5519   5.5612   5.6230   5.6576   5.6741   5.7124   5.7188
     5.7196   5.7222   5.7686   5.7837   6.0033   6.0390   6.0512   6.0628
     6.0642   6.0648   6.0740   6.0782   6.1481   6.1559   6.1738   6.2895

          k =-0.2500-0.2500 0.0833 (167653 PWs)   bands (ev):

   -19.7739  -7.6155  -6.9021  -6.3753  -6.3716  -5.9442  -5.5467  -5.4453
    -5.4398  -5.2462  -5.2445  -5.1533  -5.1263  -5.0475  -5.0332  -4.9554
    -4.8673  -4.8660  -4.8340  -4.8232  -4.6845  -4.6652  -4.6459  -4.6449
    -4.6374  -4.6182  -4.5831  -4.5760  -4.5705  -4.5537  -4.5333  -4.5211
    -4.4886  -4.4782  -4.4465  -4.4442  -4.4256  -4.3942  -4.3917  -4.3817
    -4.3798  -4.3743  -4.3608  -4.3473  -4.3183  -4.3029  -4.2993  -4.2946
    -4.2930  -4.2587  -4.2145  -4.1978  -4.1973  -4.1929  -4.1897  -4.1823
    -4.1803  -4.1786  -4.1543  -4.1189  -4.1147  -4.0650  -4.0538  -4.0487
    -4.0277  -4.0259  -4.0039  -4.0023  -3.9997  -3.9981  -3.9900  -3.9483
    -3.9397  -3.9362  -3.9343  -3.8324  -3.8294  -3.8221  -3.8166  -3.7906
    -3.7815  -3.7570  -3.7348  -3.7258  -3.7024  -3.6994  -3.6834  -3.6822
    -3.6733  -3.6683  -3.6128  -3.6112  -3.6046  -3.5747  -3.5731  -3.5711
    -3.5649  -3.5643  -3.5394  -3.5387  -3.5032  -3.4943  -3.4877  -3.4811
    -3.4511  -3.4449  -3.4331  -3.4029  -3.3997  -3.3655  -3.3624  -3.3295
    -3.3181  -3.3162  -3.3067  -3.3049  -3.2978  -3.2957  -3.2690  -3.2485
    -3.2127  -3.2101  -3.2008  -3.1918  -3.1903  -3.1855  -3.1691  -3.1673
    -3.1477  -3.1449  -3.1440  -3.1190  -3.1185  -3.1113  -3.1092  -3.1040
    -3.0698  -3.0690  -3.0391  -3.0329  -3.0315  -3.0293  -3.0257  -2.9483
    -2.9442  -2.9392  -2.9373  -2.9327  -2.9316  -2.9288  -2.9253  -2.9242
    -2.9237  -2.9157  -2.9076  -2.8967  -2.8908  -2.8864  -2.8807  -2.8746
    -2.8725  -2.8370  -2.8304  -2.8296  -2.8269  -2.8249  -2.8085  -2.8067
    -2.8014  -2.7999  -2.7943  -2.7470  -2.7393  -2.7354  -2.7319  -2.7278
    -2.7204  -2.7008  -2.6445  -2.6420  -2.6363  -2.6336  -2.6250  -2.6234
    -2.6181  -2.6101  -2.6067  -2.5844  -2.5747  -2.5710  -2.5683  -2.5605
    -2.5591  -2.5256  -2.5250  -2.5209  -2.5131  -2.5078  -2.5067  -2.4792
    -2.4569  -2.4400  -2.4045  -2.3918  -2.3834  -2.3784  -2.3666  -2.3647
    -2.3294  -2.3167  -2.2966  -2.2949  -2.2734  -2.2641  -2.2592  -2.2449
    -2.2396  -2.2323  -2.2081  -2.1980  -2.1787  -2.1698  -2.1573  -2.1559
    -2.1545  -2.1482  -2.1469  -2.1323  -2.1300  -2.1280  -2.1250  -2.1213
    -2.1178  -2.1147  -2.1118  -2.0964  -2.0901  -2.0875  -2.0856  -2.0810
    -2.0779  -2.0617  -2.0564  -2.0446  -2.0444  -2.0355  -2.0300  -1.9964
    -1.9679  -1.9656  -1.9325  -1.9314  -1.9221  -1.9099  -1.9084  -1.8925
    -1.8803  -1.8708  -1.8673  -1.8655  -1.8594  -1.8586  -1.8542  -1.8252
    -1.8235  -1.8196  -1.7897  -1.7817  -1.7478  -1.7440  -1.7356  -1.6929
    -1.6825  -1.6722  -1.6605  -1.6493  -1.6483  -1.6369  -1.6267  -1.6166
    -1.6137  -1.6120  -1.6072  -1.6053  -1.6043  -1.6027  -1.5878  -1.5815
    -1.5646  -1.5588  -1.5576  -1.5453  -1.5419  -1.5112  -1.5090  -1.5056
    -1.5053  -1.4980  -1.4858  -1.4767  -1.4653  -1.4629  -1.4528  -1.4449
    -1.4257  -1.4228  -1.4154  -1.4036  -1.3917  -1.3910  -1.3771  -1.3508
    -1.3468  -1.3422  -1.3408  -1.3393  -1.3227  -1.3133  -1.3119  -1.3066
    -1.2940  -1.2911  -1.2852  -1.2804  -1.2793  -1.2682  -1.2664  -1.2564
    -1.2472  -1.2465  -1.2424  -1.2311  -1.2257  -1.2252  -1.2210  -1.1851
    -1.1769  -1.1754  -1.1731  -1.1715  -1.1703  -1.1398  -1.1195  -1.1163
    -1.1160  -1.1143  -1.1120  -1.1075  -1.1020  -1.0913  -1.0844  -1.0586
    -1.0488  -1.0482  -1.0434  -1.0265  -1.0261  -1.0158  -0.9919  -0.9774
    -0.9551  -0.9500  -0.9245  -0.9235  -0.9206  -0.9192  -0.9149  -0.9095
    -0.9086  -0.9065  -0.9030  -0.9004  -0.8729  -0.8716  -0.8560  -0.8521
    -0.8474  -0.8447  -0.8443  -0.8279  -0.8166  -0.5620  -0.5376  -0.4853
    -0.4588  -0.4445  -0.2830  -0.2204  -0.2200  -0.1725   0.0953   0.1092
     0.4279   0.4477   0.5255   0.5293   0.5686   0.5727   0.7101   0.7313
     0.8341   0.8397   0.9400   1.5281   1.5386   1.5413   1.5696   1.5884
     1.6297   1.6531   1.7107   1.7265   1.9161   1.9219   2.1600   2.2333
     2.2416   2.2516   2.6303   2.6430   2.6991   2.7065   2.7124   2.7136
     2.8602   2.8640   2.9191   3.0064   3.0292   3.2394   3.2523   3.3712
     3.3975   3.4055   3.6712   3.6845   3.7822   3.8024   3.8047   3.8891
     3.9045   3.9873   3.9912   4.2256   4.2265   4.3148   4.3258   4.4296
     4.4461   4.4650   4.4717   4.6364   5.2754   5.2803   5.3649   5.3722
     5.3937   5.5519   5.5612   5.6240   5.6576   5.6740   5.6827   5.7191
     5.7202   5.7299   5.7393   5.7691   6.0031   6.0393   6.0509   6.0627
     6.0642   6.0648   6.0743   6.0785   6.1570   6.1727   6.1755   6.1849

          k =-0.2500 0.2500-0.0833 (167653 PWs)   bands (ev):

   -19.7739  -7.6155  -6.9020  -6.3774  -6.3699  -5.9437  -5.5462  -5.4464
    -5.4382  -5.2471  -5.2448  -5.1576  -5.1242  -5.0472  -5.0304  -4.9536
    -4.8709  -4.8677  -4.8385  -4.8227  -4.6777  -4.6654  -4.6467  -4.6437
    -4.6373  -4.6138  -4.5831  -4.5744  -4.5689  -4.5558  -4.5335  -4.5191
    -4.4898  -4.4780  -4.4463  -4.4445  -4.4316  -4.3929  -4.3901  -4.3822
    -4.3805  -4.3742  -4.3608  -4.3457  -4.3216  -4.3042  -4.2990  -4.2939
    -4.2931  -4.2614  -4.2163  -4.1991  -4.1960  -4.1918  -4.1903  -4.1839
    -4.1806  -4.1782  -4.1501  -4.1202  -4.1133  -4.0631  -4.0569  -4.0528
    -4.0284  -4.0265  -4.0036  -4.0028  -4.0000  -3.9972  -3.9866  -3.9488
    -3.9396  -3.9350  -3.9329  -3.8313  -3.8272  -3.8204  -3.8189  -3.7905
    -3.7822  -3.7572  -3.7359  -3.7241  -3.7011  -3.7008  -3.6841  -3.6819
    -3.6718  -3.6661  -3.6135  -3.6115  -3.6078  -3.5741  -3.5732  -3.5718
    -3.5652  -3.5641  -3.5391  -3.5386  -3.5044  -3.4931  -3.4888  -3.4780
    -3.4525  -3.4428  -3.4334  -3.4059  -3.3994  -3.3659  -3.3609  -3.3271
    -3.3183  -3.3162  -3.3051  -3.3042  -3.2978  -3.2961  -3.2691  -3.2484
    -3.2137  -3.2105  -3.2002  -3.1917  -3.1900  -3.1877  -3.1671  -3.1666
    -3.1502  -3.1457  -3.1421  -3.1209  -3.1192  -3.1110  -3.1105  -3.1030
    -3.0719  -3.0704  -3.0366  -3.0313  -3.0305  -3.0287  -3.0258  -2.9495
    -2.9461  -2.9396  -2.9384  -2.9313  -2.9308  -2.9302  -2.9253  -2.9246
    -2.9236  -2.9157  -2.9078  -2.8953  -2.8948  -2.8864  -2.8816  -2.8745
    -2.8741  -2.8357  -2.8309  -2.8302  -2.8239  -2.8231  -2.8085  -2.8056
    -2.8037  -2.7989  -2.7947  -2.7480  -2.7414  -2.7371  -2.7330  -2.7277
    -2.7204  -2.6991  -2.6503  -2.6417  -2.6362  -2.6339  -2.6272  -2.6228
    -2.6172  -2.6097  -2.6071  -2.5806  -2.5749  -2.5674  -2.5657  -2.5602
    -2.5574  -2.5251  -2.5221  -2.5143  -2.5123  -2.5100  -2.5059  -2.4677
    -2.4512  -2.4409  -2.4001  -2.3984  -2.3843  -2.3794  -2.3666  -2.3639
    -2.3257  -2.3146  -2.2978  -2.2965  -2.2829  -2.2634  -2.2593  -2.2444
    -2.2406  -2.2329  -2.2082  -2.2009  -2.1883  -2.1681  -2.1632  -2.1563
    -2.1533  -2.1528  -2.1458  -2.1364  -2.1297  -2.1275  -2.1228  -2.1189
    -2.1175  -2.1165  -2.1075  -2.0947  -2.0931  -2.0883  -2.0878  -2.0819
    -2.0767  -2.0632  -2.0531  -2.0461  -2.0445  -2.0360  -2.0292  -1.9963
    -1.9871  -1.9652  -1.9564  -1.9310  -1.9169  -1.9108  -1.8983  -1.8884
    -1.8817  -1.8760  -1.8700  -1.8630  -1.8607  -1.8578  -1.8529  -1.8245
    -1.8232  -1.8209  -1.7831  -1.7782  -1.7552  -1.7350  -1.7065  -1.6931
    -1.6903  -1.6774  -1.6546  -1.6498  -1.6479  -1.6410  -1.6222  -1.6204
    -1.6112  -1.6100  -1.6078  -1.6061  -1.6047  -1.6012  -1.5897  -1.5804
    -1.5680  -1.5635  -1.5539  -1.5432  -1.5223  -1.5190  -1.5071  -1.5048
    -1.5016  -1.4989  -1.4967  -1.4742  -1.4665  -1.4546  -1.4511  -1.4452
    -1.4358  -1.4225  -1.4182  -1.3977  -1.3963  -1.3873  -1.3842  -1.3564
    -1.3458  -1.3418  -1.3411  -1.3341  -1.3276  -1.3180  -1.3100  -1.3028
    -1.2941  -1.2899  -1.2868  -1.2788  -1.2751  -1.2732  -1.2669  -1.2569
    -1.2499  -1.2482  -1.2444  -1.2370  -1.2243  -1.2209  -1.2171  -1.1844
    -1.1804  -1.1797  -1.1719  -1.1707  -1.1664  -1.1377  -1.1198  -1.1158
    -1.1140  -1.1140  -1.1076  -1.1048  -1.0949  -1.0893  -1.0848  -1.0549
    -1.0529  -1.0484  -1.0463  -1.0280  -1.0258  -1.0151  -0.9880  -0.9779
    -0.9572  -0.9484  -0.9285  -0.9234  -0.9186  -0.9182  -0.9151  -0.9113
    -0.9096  -0.9086  -0.9018  -0.9003  -0.8733  -0.8702  -0.8521  -0.8498
    -0.8469  -0.8453  -0.8395  -0.8275  -0.8267  -0.5626  -0.5375  -0.4786
    -0.4634  -0.4454  -0.2901  -0.2257  -0.2182  -0.1744   0.1018   0.1045
     0.4337   0.4418   0.5227   0.5295   0.5639   0.5716   0.7200   0.7246
     0.8348   0.8410   0.9394   1.5239   1.5398   1.5443   1.5801   1.5885
     1.6410   1.6432   1.7167   1.7175   1.9149   1.9218   2.1645   2.2344
     2.2395   2.2511   2.6394   2.6427   2.7023   2.7055   2.7073   2.7156
     2.8589   2.8653   2.9230   3.0051   3.0143   3.2327   3.2423   3.3705
     3.4008   3.4052   3.6729   3.6773   3.7930   3.8018   3.8067   3.8866
     3.9032   3.9766   3.9948   4.2177   4.2312   4.3181   4.3253   4.4400
     4.4409   4.4749   4.4842   4.6499   5.2854   5.2925   5.3531   5.3724
     5.3821   5.5408   5.5561   5.6241   5.6721   5.6746   5.6806   5.6861
     5.7220   5.7241   5.7474   5.7634   6.0006   6.0394   6.0449   6.0507
     6.0612   6.0674   6.0775   6.0807   6.1571   6.1703   6.1724   6.1879

          k = 0.2500-0.2500-0.0833 (167653 PWs)   bands (ev):

   -19.7739  -7.6155  -6.9020  -6.3774  -6.3699  -5.9437  -5.5462  -5.4464
    -5.4382  -5.2471  -5.2448  -5.1576  -5.1242  -5.0472  -5.0304  -4.9536
    -4.8709  -4.8677  -4.8385  -4.8227  -4.6777  -4.6654  -4.6467  -4.6437
    -4.6373  -4.6138  -4.5831  -4.5744  -4.5689  -4.5558  -4.5335  -4.5191
    -4.4898  -4.4780  -4.4463  -4.4445  -4.4316  -4.3929  -4.3901  -4.3822
    -4.3805  -4.3742  -4.3608  -4.3457  -4.3216  -4.3042  -4.2990  -4.2939
    -4.2931  -4.2614  -4.2163  -4.1991  -4.1960  -4.1918  -4.1903  -4.1839
    -4.1806  -4.1782  -4.1501  -4.1202  -4.1133  -4.0631  -4.0569  -4.0528
    -4.0284  -4.0265  -4.0036  -4.0028  -4.0000  -3.9972  -3.9866  -3.9488
    -3.9396  -3.9350  -3.9329  -3.8313  -3.8272  -3.8204  -3.8189  -3.7905
    -3.7822  -3.7572  -3.7359  -3.7241  -3.7011  -3.7008  -3.6841  -3.6819
    -3.6718  -3.6661  -3.6135  -3.6115  -3.6078  -3.5741  -3.5732  -3.5718
    -3.5652  -3.5641  -3.5391  -3.5386  -3.5044  -3.4931  -3.4888  -3.4780
    -3.4525  -3.4428  -3.4334  -3.4059  -3.3994  -3.3659  -3.3609  -3.3271
    -3.3183  -3.3162  -3.3051  -3.3042  -3.2978  -3.2961  -3.2691  -3.2484
    -3.2137  -3.2105  -3.2002  -3.1917  -3.1900  -3.1877  -3.1671  -3.1666
    -3.1502  -3.1457  -3.1421  -3.1209  -3.1192  -3.1110  -3.1105  -3.1030
    -3.0719  -3.0704  -3.0366  -3.0313  -3.0305  -3.0287  -3.0258  -2.9495
    -2.9461  -2.9396  -2.9384  -2.9313  -2.9308  -2.9302  -2.9253  -2.9246
    -2.9236  -2.9157  -2.9078  -2.8953  -2.8948  -2.8864  -2.8816  -2.8745
    -2.8741  -2.8357  -2.8309  -2.8302  -2.8239  -2.8231  -2.8085  -2.8056
    -2.8037  -2.7989  -2.7947  -2.7480  -2.7414  -2.7371  -2.7330  -2.7277
    -2.7204  -2.6991  -2.6503  -2.6417  -2.6362  -2.6339  -2.6272  -2.6228
    -2.6172  -2.6097  -2.6071  -2.5806  -2.5749  -2.5674  -2.5657  -2.5602
    -2.5574  -2.5251  -2.5221  -2.5143  -2.5123  -2.5100  -2.5059  -2.4677
    -2.4512  -2.4409  -2.4001  -2.3984  -2.3843  -2.3794  -2.3666  -2.3639
    -2.3257  -2.3146  -2.2978  -2.2965  -2.2829  -2.2634  -2.2593  -2.2444
    -2.2406  -2.2329  -2.2082  -2.2009  -2.1883  -2.1681  -2.1632  -2.1563
    -2.1533  -2.1528  -2.1458  -2.1364  -2.1297  -2.1275  -2.1228  -2.1189
    -2.1175  -2.1165  -2.1075  -2.0947  -2.0931  -2.0883  -2.0878  -2.0819
    -2.0767  -2.0632  -2.0531  -2.0461  -2.0445  -2.0360  -2.0292  -1.9963
    -1.9871  -1.9652  -1.9564  -1.9310  -1.9169  -1.9108  -1.8983  -1.8884
    -1.8817  -1.8760  -1.8700  -1.8630  -1.8607  -1.8578  -1.8529  -1.8245
    -1.8232  -1.8209  -1.7831  -1.7782  -1.7552  -1.7350  -1.7065  -1.6931
    -1.6903  -1.6774  -1.6546  -1.6498  -1.6479  -1.6410  -1.6222  -1.6204
    -1.6112  -1.6100  -1.6078  -1.6061  -1.6047  -1.6012  -1.5897  -1.5804
    -1.5680  -1.5635  -1.5539  -1.5432  -1.5223  -1.5190  -1.5071  -1.5048
    -1.5016  -1.4989  -1.4967  -1.4742  -1.4665  -1.4546  -1.4511  -1.4452
    -1.4358  -1.4225  -1.4182  -1.3977  -1.3963  -1.3873  -1.3842  -1.3564
    -1.3458  -1.3418  -1.3411  -1.3341  -1.3276  -1.3180  -1.3100  -1.3028
    -1.2941  -1.2899  -1.2868  -1.2788  -1.2751  -1.2732  -1.2669  -1.2569
    -1.2499  -1.2482  -1.2444  -1.2370  -1.2243  -1.2209  -1.2171  -1.1844
    -1.1804  -1.1797  -1.1719  -1.1707  -1.1664  -1.1377  -1.1198  -1.1158
    -1.1140  -1.1140  -1.1076  -1.1048  -1.0949  -1.0893  -1.0848  -1.0549
    -1.0529  -1.0484  -1.0463  -1.0280  -1.0258  -1.0151  -0.9880  -0.9779
    -0.9572  -0.9484  -0.9285  -0.9234  -0.9186  -0.9182  -0.9151  -0.9113
    -0.9096  -0.9086  -0.9018  -0.9003  -0.8733  -0.8702  -0.8521  -0.8498
    -0.8469  -0.8453  -0.8395  -0.8275  -0.8267  -0.5626  -0.5375  -0.4786
    -0.4634  -0.4454  -0.2901  -0.2257  -0.2182  -0.1744   0.1018   0.1045
     0.4337   0.4418   0.5227   0.5295   0.5639   0.5716   0.7200   0.7246
     0.8348   0.8410   0.9394   1.5239   1.5398   1.5443   1.5801   1.5885
     1.6410   1.6432   1.7167   1.7175   1.9149   1.9218   2.1645   2.2344
     2.2395   2.2511   2.6394   2.6427   2.7023   2.7055   2.7073   2.7156
     2.8589   2.8653   2.9230   3.0051   3.0143   3.2327   3.2423   3.3705
     3.4008   3.4052   3.6729   3.6773   3.7930   3.8018   3.8067   3.8866
     3.9032   3.9766   3.9948   4.2177   4.2312   4.3181   4.3253   4.4400
     4.4409   4.4749   4.4842   4.6499   5.2854   5.2925   5.3531   5.3724
     5.3821   5.5408   5.5561   5.6241   5.6721   5.6746   5.6805   5.6862
     5.7220   5.7241   5.7474   5.7634   6.0005   6.0394   6.0448   6.0507
     6.0612   6.0674   6.0775   6.0807   6.1571   6.1703   6.1725   6.1879

          k =-0.2500 0.2500 0.2500 (167588 PWs)   bands (ev):

   -19.7739  -7.6155  -6.9020  -6.3774  -6.3699  -5.9437  -5.5462  -5.4464
    -5.4382  -5.2471  -5.2448  -5.1576  -5.1242  -5.0472  -5.0304  -4.9536
    -4.8709  -4.8677  -4.8384  -4.8227  -4.6777  -4.6654  -4.6467  -4.6437
    -4.6373  -4.6138  -4.5831  -4.5744  -4.5689  -4.5558  -4.5335  -4.5191
    -4.4898  -4.4780  -4.4463  -4.4445  -4.4316  -4.3929  -4.3901  -4.3823
    -4.3805  -4.3742  -4.3608  -4.3457  -4.3217  -4.3042  -4.2990  -4.2939
    -4.2931  -4.2614  -4.2163  -4.1991  -4.1960  -4.1918  -4.1903  -4.1840
    -4.1806  -4.1782  -4.1501  -4.1202  -4.1133  -4.0631  -4.0569  -4.0528
    -4.0284  -4.0265  -4.0036  -4.0027  -4.0000  -3.9972  -3.9866  -3.9488
    -3.9396  -3.9350  -3.9329  -3.8313  -3.8272  -3.8204  -3.8189  -3.7905
    -3.7822  -3.7572  -3.7359  -3.7241  -3.7011  -3.7008  -3.6841  -3.6819
    -3.6718  -3.6661  -3.6135  -3.6115  -3.6078  -3.5741  -3.5732  -3.5718
    -3.5652  -3.5641  -3.5391  -3.5386  -3.5043  -3.4931  -3.4888  -3.4780
    -3.4525  -3.4428  -3.4334  -3.4059  -3.3994  -3.3659  -3.3609  -3.3271
    -3.3183  -3.3162  -3.3051  -3.3042  -3.2978  -3.2961  -3.2691  -3.2484
    -3.2137  -3.2104  -3.2002  -3.1917  -3.1900  -3.1877  -3.1671  -3.1666
    -3.1502  -3.1457  -3.1421  -3.1209  -3.1192  -3.1110  -3.1105  -3.1030
    -3.0719  -3.0704  -3.0366  -3.0313  -3.0305  -3.0287  -3.0258  -2.9495
    -2.9461  -2.9396  -2.9384  -2.9313  -2.9308  -2.9302  -2.9253  -2.9246
    -2.9236  -2.9157  -2.9078  -2.8953  -2.8948  -2.8864  -2.8816  -2.8745
    -2.8741  -2.8357  -2.8309  -2.8302  -2.8239  -2.8231  -2.8085  -2.8056
    -2.8037  -2.7989  -2.7947  -2.7480  -2.7414  -2.7371  -2.7330  -2.7277
    -2.7204  -2.6991  -2.6503  -2.6417  -2.6362  -2.6339  -2.6272  -2.6228
    -2.6172  -2.6097  -2.6071  -2.5806  -2.5749  -2.5674  -2.5657  -2.5602
    -2.5574  -2.5251  -2.5221  -2.5143  -2.5123  -2.5100  -2.5059  -2.4677
    -2.4512  -2.4409  -2.4001  -2.3984  -2.3843  -2.3794  -2.3666  -2.3639
    -2.3257  -2.3146  -2.2978  -2.2965  -2.2829  -2.2634  -2.2593  -2.2444
    -2.2406  -2.2329  -2.2082  -2.2009  -2.1883  -2.1681  -2.1632  -2.1563
    -2.1533  -2.1528  -2.1458  -2.1364  -2.1297  -2.1275  -2.1228  -2.1189
    -2.1175  -2.1165  -2.1075  -2.0947  -2.0931  -2.0883  -2.0878  -2.0819
    -2.0767  -2.0632  -2.0531  -2.0461  -2.0445  -2.0360  -2.0292  -1.9963
    -1.9871  -1.9652  -1.9564  -1.9310  -1.9169  -1.9107  -1.8983  -1.8884
    -1.8816  -1.8760  -1.8700  -1.8630  -1.8607  -1.8578  -1.8528  -1.8245
    -1.8232  -1.8209  -1.7831  -1.7782  -1.7552  -1.7350  -1.7065  -1.6931
    -1.6903  -1.6775  -1.6546  -1.6498  -1.6479  -1.6410  -1.6222  -1.6204
    -1.6112  -1.6100  -1.6078  -1.6061  -1.6047  -1.6012  -1.5897  -1.5804
    -1.5680  -1.5635  -1.5539  -1.5432  -1.5223  -1.5190  -1.5071  -1.5048
    -1.5016  -1.4989  -1.4967  -1.4742  -1.4665  -1.4546  -1.4511  -1.4452
    -1.4358  -1.4225  -1.4182  -1.3977  -1.3963  -1.3873  -1.3842  -1.3564
    -1.3458  -1.3418  -1.3411  -1.3341  -1.3276  -1.3180  -1.3100  -1.3028
    -1.2941  -1.2899  -1.2868  -1.2788  -1.2751  -1.2732  -1.2669  -1.2569
    -1.2499  -1.2482  -1.2444  -1.2370  -1.2243  -1.2209  -1.2171  -1.1844
    -1.1804  -1.1797  -1.1719  -1.1707  -1.1664  -1.1377  -1.1198  -1.1158
    -1.1140  -1.1140  -1.1076  -1.1048  -1.0949  -1.0893  -1.0848  -1.0549
    -1.0528  -1.0484  -1.0463  -1.0280  -1.0258  -1.0151  -0.9880  -0.9779
    -0.9572  -0.9483  -0.9286  -0.9233  -0.9186  -0.9182  -0.9151  -0.9113
    -0.9096  -0.9086  -0.9018  -0.9003  -0.8733  -0.8702  -0.8521  -0.8498
    -0.8469  -0.8453  -0.8395  -0.8275  -0.8267  -0.5626  -0.5375  -0.4786
    -0.4634  -0.4454  -0.2901  -0.2257  -0.2182  -0.1744   0.1018   0.1045
     0.4337   0.4418   0.5227   0.5295   0.5639   0.5716   0.7200   0.7246
     0.8348   0.8410   0.9394   1.5239   1.5398   1.5443   1.5801   1.5885
     1.6410   1.6432   1.7167   1.7175   1.9149   1.9218   2.1645   2.2344
     2.2395   2.2511   2.6394   2.6427   2.7023   2.7055   2.7074   2.7156
     2.8589   2.8653   2.9230   3.0051   3.0143   3.2327   3.2423   3.3705
     3.4008   3.4052   3.6729   3.6773   3.7930   3.8018   3.8067   3.8867
     3.9032   3.9766   3.9948   4.2177   4.2312   4.3181   4.3253   4.4400
     4.4409   4.4749   4.4842   4.6500   5.2855   5.2927   5.3434   5.3663
     5.3724   5.5408   5.5561   5.6230   5.6719   5.6745   5.6836   5.7067
     5.7233   5.7300   5.7630   5.7826   6.0002   6.0395   6.0450   6.0508
     6.0613   6.0674   6.0775   6.0810   6.1475   6.1559   6.1699   6.2886

     the Fermi energy is     0.7909 ev

!    total energy              =   -7425.25550892 Ry
     Harris-Foulkes estimate   =   -7425.25550892 Ry
     estimated scf accuracy    <          7.8E-09 Ry

     The total energy is the sum of the following terms:

     one-electron contribution =  -48899.53036214 Ry
     hartree contribution      =   24998.23518107 Ry
     xc contribution           =   -3604.29605221 Ry
     ewald contribution        =   20080.33792742 Ry
     smearing contrib. (-TS)   =      -0.00220305 Ry

     convergence has been achieved in  25 iterations

     Writing output data file 3545319.save

     init_run     :    113.99s CPU    123.43s WALL (       1 calls)
     electrons    :   6607.75s CPU   7038.01s WALL (       1 calls)

     Called by init_run:
     wfcinit      :     80.06s CPU     88.12s WALL (       1 calls)
     potinit      :      7.61s CPU      8.17s WALL (       1 calls)

     Called by electrons:
     c_bands      :   5129.32s CPU   5479.33s WALL (      26 calls)
     sum_band     :    951.14s CPU   1013.59s WALL (      26 calls)
     v_of_rho     :    113.66s CPU    124.72s WALL (      26 calls)
     newd         :    427.84s CPU    433.98s WALL (      26 calls)
     mix_rho      :      3.46s CPU      3.83s WALL (      26 calls)
     vdW_energy   :     10.20s CPU     11.19s WALL (      26 calls)
     vdW_ffts     :     56.87s CPU     62.64s WALL (      52 calls)
     vdW_v        :     15.08s CPU     15.91s WALL (      26 calls)

     Called by c_bands:
     init_us_2    :     17.33s CPU     17.71s WALL (     318 calls)
     cegterg      :   5058.05s CPU   5403.02s WALL (     156 calls)

     Called by *egterg:
     h_psi        :   2199.56s CPU   2514.56s WALL (     802 calls)
     s_psi        :    343.15s CPU    345.07s WALL (     802 calls)
     g_psi        :      4.30s CPU      4.41s WALL (     640 calls)
     cdiaghg      :   1461.69s CPU   1465.34s WALL (     790 calls)

     Called by h_psi:
     add_vuspsi   :    345.88s CPU    347.78s WALL (     802 calls)

     General routines
     calbec       :    495.12s CPU    497.05s WALL (     958 calls)
     fft          :    147.78s CPU    157.94s WALL (    1716 calls)
     ffts         :      1.46s CPU      1.80s WALL (      52 calls)
     fftw         :   1415.72s CPU   1690.10s WALL (  426408 calls)
     interpolate  :      4.19s CPU      5.07s WALL (      52 calls)
     davcio       :      0.00s CPU      0.23s WALL (       6 calls)

     Parallel routines
     fft_scatter  :    998.56s CPU   1187.49s WALL (  428176 calls)

     PWSCF        :     1h52m CPU        1h59m WALL


   This run was terminated on:  23: 4:53  24Jun2015            

=------------------------------------------------------------------------------=
   JOB DONE.
=------------------------------------------------------------------------------=
