
     Program PWSCF v.5.1.2 starts on 29Aug2015 at 15:55:14 

     This program is part of the open-source Quantum ESPRESSO suite
     for quantum simulation of materials; please cite
         "P. Giannozzi et al., J. Phys.:Condens. Matter 21 395502 (2009);
          URL http://www.quantum-espresso.org", 
     in publications or presentations arising from this work. More details at
     http://www.quantum-espresso.org/quote

     Parallel version (MPI), running on    32 processors
     R & G space division:  proc/nbgrp/npool/nimage =      32
     Reading input from top.O1.Au62.d.3.6.phi.0.psi.0.in
Warning: card &IONS ignored
Warning: card / ignored
Warning: card &CELL ignored
Warning: card / ignored

     Current dimensions of program PWSCF are:
     Max number of different atomic species (ntypx) = 10
     Max number of k-points (npk) =  40000
     Max angular momentum in pseudopotentials (lmaxx) =  3

     IMPORTANT: XC functional enforced from input :
     Exchange-correlation      = VDW-DF ( 1  4  4  0 1 0)
     Any further DFT definition will be discarded
     Please, verify this is what you really want


     Subspace diagonalization in iterative solution of the eigenvalue problem:
     a serial algorithm will be used


     Parallelization info
     --------------------
     sticks:   dense  smooth     PW     G-vecs:    dense   smooth      PW
     Min         578     289     74               118518    41891    5486
     Max         579     290     75               118533    41932    5497
     Sum       18505    9265   2385              3792731  1341081  175711


     Title: 
     top.O1.Au62.d.3.6.phi.0.psi.0                                              


     bravais-lattice index     =            8
     lattice parameter (alat)  =      24.1233  a.u.
     unit-cell volume          =   28076.2361 (a.u.)^3
     number of atoms/cell      =           75
     number of atomic types    =            3
     number of electrons       =       800.00
     number of Kohn-Sham states=          480
     kinetic-energy cutoff     =      50.0000  Ry
     charge density cutoff     =     400.0000  Ry
     convergence threshold     =      1.0E-08
     mixing beta               =       0.7000
     number of iterations used =            8  plain     mixing
     Exchange-correlation      = VDW-DF ( 1  4  4  0 1 0)

     celldm(1)=  24.123277  celldm(2)=   1.000000  celldm(3)=   2.000000
     celldm(4)=   0.000000  celldm(5)=   0.000000  celldm(6)=   0.000000

     crystal axes: (cart. coord. in units of alat)
               a(1) = (   1.000000   0.000000   0.000000 )  
               a(2) = (   0.000000   1.000000   0.000000 )  
               a(3) = (   0.000000   0.000000   2.000000 )  

     reciprocal axes: (cart. coord. in units 2 pi/alat)
               b(1) = (  1.000000  0.000000  0.000000 )  
               b(2) = (  0.000000  1.000000  0.000000 )  
               b(3) = (  0.000000  0.000000  0.500000 )  


     PseudoPot. # 1 for Au read from file:
     /home/scc/andrejb/qe/pseudo/Au.pbe-nd-van.UPF
     MD5 check sum: 458681b50f36d87ef23c61b04bba420a
     Pseudo is Ultrasoft + core correction, Zval = 11.0
     Generated by new atomic code, or converted to UPF format
     Using radial grid of  985 points,  3 beta functions with: 
                l(1) =   1
                l(2) =   2
                l(3) =   2
     Q(r) pseudized with  8 coefficients,  rinner =    1.100   1.100   1.100
                                                       1.100   1.100

     PseudoPot. # 2 for H  read from file:
     /home/scc/andrejb/qe/pseudo/H.pbe-van_ak.UPF
     MD5 check sum: 403db7282739603aa925980fa9b8608d
     Pseudo is Ultrasoft, Zval =  1.0
     Generated by new atomic code, or converted to UPF format
     Using radial grid of  615 points,  1 beta functions with: 
                l(1) =   0
     Q(r) pseudized with  8 coefficients,  rinner =    0.800

     PseudoPot. # 3 for O  read from file:
     /home/scc/andrejb/qe/pseudo/O.pbe-van_ak.UPF
     MD5 check sum: 4b8c549914a63cae506c6ff22b5af4fe
     Pseudo is Ultrasoft, Zval =  6.0
     Generated by new atomic code, or converted to UPF format
     Using radial grid of  737 points,  4 beta functions with: 
                l(1) =   0
                l(2) =   0
                l(3) =   1
                l(4) =   1
     Q(r) pseudized with  8 coefficients,  rinner =    0.800   0.800   0.800


     vdW kernel table read from file vdW_kernel_table
     MD5 check sum: 48e77a2e26edf626eeb0eaa751ad5cac

     atomic species   valence    mass     pseudopotential
        Au            11.00   196.96657     Au( 1.00)
        H              1.00     1.01000     H ( 1.00)
        O              6.00    16.00000     O ( 1.00)

     No symmetry found



   Cartesian axes

     site n.     atom                  positions (alat units)
         1           O   tau(   1) = (   0.4998324   0.3332216   0.7813289  )
         2           H   tau(   2) = (   0.4527548   0.2940501   0.8268228  )
         3           H   tau(   3) = (   0.5454827   0.3712233   0.8291866  )
         4           Au  tau(   4) = (   0.0000000   0.0000000   0.0000000  )
         5           Au  tau(   5) = (   0.3332217   0.0000000   0.0000000  )
         6           Au  tau(   6) = (   0.6664434   0.0000000   0.0000000  )
         7           Au  tau(   7) = (   0.1666109   0.1666109   0.0000000  )
         8           Au  tau(   8) = (   0.4998326   0.1666109   0.0000000  )
         9           Au  tau(   9) = (   0.8330542   0.1666109   0.0000000  )
        10           Au  tau(  10) = (   0.0000000   0.3332217   0.0000000  )
        11           Au  tau(  11) = (   0.3332217   0.3332217   0.0000000  )
        12           Au  tau(  12) = (   0.6664434   0.3332217   0.0000000  )
        13           Au  tau(  13) = (   0.1666109   0.4998326   0.0000000  )
        14           Au  tau(  14) = (   0.4998326   0.4998326   0.0000000  )
        15           Au  tau(  15) = (   0.8330542   0.4998326   0.0000000  )
        16           Au  tau(  16) = (   0.0000000   0.6664434   0.0000000  )
        17           Au  tau(  17) = (   0.3332217   0.6664434   0.0000000  )
        18           Au  tau(  18) = (   0.6664434   0.6664434   0.0000000  )
        19           Au  tau(  19) = (   0.1666109   0.8330542   0.0000000  )
        20           Au  tau(  20) = (   0.4998326   0.8330542   0.0000000  )
        21           Au  tau(  21) = (   0.8330542   0.8330542   0.0000000  )
        22           Au  tau(  22) = (   0.1666109   0.0000000   0.1666109  )
        23           Au  tau(  23) = (   0.4998326   0.0000000   0.1666109  )
        24           Au  tau(  24) = (   0.8330542   0.0000000   0.1666109  )
        25           Au  tau(  25) = (   0.0000000   0.1666109   0.1666109  )
        26           Au  tau(  26) = (   0.3332217   0.1666109   0.1666109  )
        27           Au  tau(  27) = (   0.6664434   0.1666109   0.1666109  )
        28           Au  tau(  28) = (   0.1666109   0.3332217   0.1666109  )
        29           Au  tau(  29) = (   0.4998326   0.3332217   0.1666109  )
        30           Au  tau(  30) = (   0.8330542   0.3332217   0.1666109  )
        31           Au  tau(  31) = (   0.0000000   0.4998326   0.1666109  )
        32           Au  tau(  32) = (   0.3332217   0.4998326   0.1666109  )
        33           Au  tau(  33) = (   0.6664434   0.4998326   0.1666109  )
        34           Au  tau(  34) = (   0.1666109   0.6664434   0.1666109  )
        35           Au  tau(  35) = (   0.4998326   0.6664434   0.1666109  )
        36           Au  tau(  36) = (   0.8330542   0.6664434   0.1666109  )
        37           Au  tau(  37) = (   0.0000000   0.8330542   0.1666109  )
        38           Au  tau(  38) = (   0.3332217   0.8330542   0.1666109  )
        39           Au  tau(  39) = (   0.6664434   0.8330542   0.1666109  )
        40           Au  tau(  40) = (  -0.0000182  -0.0000182   0.3335478  )
        41           Au  tau(  41) = (   0.3332215  -0.0000181   0.3335473  )
        42           Au  tau(  42) = (   0.6664447  -0.0000183   0.3335481  )
        43           Au  tau(  43) = (  -0.0000181   0.3332215   0.3335473  )
        44           Au  tau(  44) = (   0.3332215   0.3332215   0.3335468  )
        45           Au  tau(  45) = (   0.6664445   0.3332215   0.3335477  )
        46           Au  tau(  46) = (  -0.0000183   0.6664447   0.3335481  )
        47           Au  tau(  47) = (   0.3332215   0.6664445   0.3335477  )
        48           Au  tau(  48) = (   0.6664446   0.6664446   0.3335486  )
        49           Au  tau(  49) = (   0.1666097   0.1666097   0.3335483  )
        50           Au  tau(  50) = (   0.4998320   0.1666098   0.3335477  )
        51           Au  tau(  51) = (   0.8330732   0.1666096   0.3335480  )
        52           Au  tau(  52) = (   0.1666098   0.4998320   0.3335477  )
        53           Au  tau(  53) = (   0.4998322   0.4998322   0.3335470  )
        54           Au  tau(  54) = (   0.8330731   0.4998322   0.3335474  )
        55           Au  tau(  55) = (   0.1666096   0.8330732   0.3335480  )
        56           Au  tau(  56) = (   0.4998322   0.8330731   0.3335474  )
        57           Au  tau(  57) = (   0.8330731   0.8330731   0.3335478  )
        58           Au  tau(  58) = (   0.1666104  -0.0000111   0.4993095  )
        59           Au  tau(  59) = (   0.4998323  -0.0000112   0.4993099  )
        60           Au  tau(  60) = (   0.8330660  -0.0000111   0.4993009  )
        61           Au  tau(  61) = (  -0.0000111   0.1666104   0.4993095  )
        62           Au  tau(  62) = (   0.3332213   0.1666106   0.4993185  )
        63           Au  tau(  63) = (   0.6664437   0.1666106   0.4993187  )
        64           Au  tau(  64) = (   0.1666106   0.3332213   0.4993185  )
        65           Au  tau(  65) = (   0.4998324   0.3332216   0.4993185  )
        66           Au  tau(  66) = (   0.8330658   0.3332215   0.4993102  )
        67           Au  tau(  67) = (  -0.0000112   0.4998323   0.4993099  )
        68           Au  tau(  68) = (   0.3332216   0.4998324   0.4993185  )
        69           Au  tau(  69) = (   0.6664437   0.4998325   0.4993187  )
        70           Au  tau(  70) = (   0.1666106   0.6664437   0.4993187  )
        71           Au  tau(  71) = (   0.4998325   0.6664437   0.4993187  )
        72           Au  tau(  72) = (   0.8330658   0.6664438   0.4993102  )
        73           Au  tau(  73) = (  -0.0000111   0.8330660   0.4993009  )
        74           Au  tau(  74) = (   0.3332215   0.8330658   0.4993102  )
        75           Au  tau(  75) = (   0.6664438   0.8330658   0.4993102  )

     number of k points=     6  Marzari-Vanderbilt smearing, width (Ry)=  0.0200
                       cart. coord. in units 2pi/alat
        k(    1) = (   0.2500000   0.2500000   0.0833333), wk =   0.3333333
        k(    2) = (   0.2500000   0.2500000  -0.2500000), wk =   0.3333333
        k(    3) = (  -0.2500000  -0.2500000   0.0833333), wk =   0.3333333
        k(    4) = (  -0.2500000   0.2500000  -0.0833333), wk =   0.3333333
        k(    5) = (   0.2500000  -0.2500000  -0.0833333), wk =   0.3333333
        k(    6) = (  -0.2500000   0.2500000   0.2500000), wk =   0.3333333

     Dense  grid:  3792731 G-vectors     FFT dimensions: ( 160, 160, 320)

     Smooth grid:  1341081 G-vectors     FFT dimensions: ( 120, 120, 225)

     Largest allocated arrays     est. size (Mb)     dimensions
        Kohn-Sham Wavefunctions        38.58 Mb     (    5267,  480)
        NL pseudopotentials            76.03 Mb     (    5267,  946)
        Each V/rho on FFT grid          3.91 Mb     (  256000)
        Each G-vector array             0.90 Mb     (  118520)
        G-vector shells                 0.08 Mb     (   10286)
     Largest temporary arrays     est. size (Mb)     dimensions
        Auxiliary wavefunctions       154.31 Mb     (    5267, 1920)
        Each subspace H/S matrix       56.25 Mb     (    1920, 1920)
        Each <psi_i|beta_j> matrix      6.93 Mb     (     946,  480)
        Arrays for rho mixing          31.25 Mb     (  256000,    8)

     Initial potential from superposition of free atoms
     Check: negative starting charge=   -1.944924

     starting charge  799.16392, renormalised to  800.00000

     negative rho (up, down):  1.947E+00 0.000E+00


     ************************************************************************
     *
     * You are using vdW-DF for exchange-correlation in this calculation.
     * Please cite the following three references that made this development
     * possible:
     *
     *   M. Dion, H. Rydberg, E. Schroder, D. C. Langreth, and
     *   B. I. Lundqvist, Phys. Rev. Lett. 92, 246401 (2004).
     *
     *   T. Thonhauser, V. R. Cooper, S. Li, A. Puzder, P. Hyldgaard, and
     *   D. C. Langreth, Phys. Rev. B 76, 125112 (2007).
     *
     *   G. Roman-Perez and J. M. Soler, Phys. Rev. Lett. 103, 096102 (2009).
     *
     *
     * If you are using vdW-DF2, please also cite:
     *
     *   K. Lee, E. D. Murray, L. Kong, B. I. Lundqvist, and
     *   D. C. Langreth, Phys. Rev. B 82, 081101(R) (2010).
     *
     *
     * If you are calculating the stress with vdW-DF, please also cite:
     *
     *   R. Sabatini, E. Kucukbenli, B. Kolb, T. Thonhauser, and
     *   S. de Gironcoli, J. Phys.: Condens. Matter 24, 424209 (2012).
     *
     ************************************************************************

     Carrying out vdW-DF run using the following parameters:

     Nqs =      20    Nr_points =    1024   r_max =   100.000
     q_mesh =
               0.00001000     0.04494208     0.09755937     0.15916263
               0.23128650     0.31572767     0.41458969     0.53033537
               0.66584808     0.82450364     1.01025438     1.22772762
               1.48234092     1.78043706     2.12944203     2.53805004
               3.01644009     3.57652955     4.23227104     5.00000000

     Gradients computed in reciprocal space

     ************************************************************************


     Starting wfc are  654 randomized atomic wfcs

     total cpu time spent up to now is      146.3 secs

     Self-consistent Calculation

     iteration #  1     ecut=    50.00 Ry     beta=0.70
     Davidson diagonalization with overlap
     ethr =  1.00E-02,  avg # of iterations =  3.0

     Threshold (ethr) on eigenvalues was too large:
     Diagonalizing with lowered threshold

     Davidson diagonalization with overlap
     ethr =  4.29E-04,  avg # of iterations =  2.5

     negative rho (up, down):  1.947E+00 0.000E+00

     total cpu time spent up to now is      605.6 secs

     total energy              =   -7423.00367130 Ry
     Harris-Foulkes estimate   =   -7426.09210010 Ry
     estimated scf accuracy    <       3.81001833 Ry

     iteration #  2     ecut=    50.00 Ry     beta=0.70
     Davidson diagonalization with overlap
     ethr =  4.76E-04,  avg # of iterations = 11.2

     negative rho (up, down):  1.941E+00 0.000E+00

     total cpu time spent up to now is     1312.7 secs

     total energy              =   -7414.62953873 Ry
     Harris-Foulkes estimate   =   -7432.76183836 Ry
     estimated scf accuracy    <      95.75009761 Ry

     iteration #  3     ecut=    50.00 Ry     beta=0.70
     Davidson diagonalization with overlap
     ethr =  4.76E-04,  avg # of iterations =  6.0

     negative rho (up, down):  1.951E+00 0.000E+00

     total cpu time spent up to now is     1773.9 secs

     total energy              =   -7424.07203496 Ry
     Harris-Foulkes estimate   =   -7425.88901131 Ry
     estimated scf accuracy    <       7.75957679 Ry

     iteration #  4     ecut=    50.00 Ry     beta=0.70
     Davidson diagonalization with overlap
     ethr =  4.76E-04,  avg # of iterations =  5.8

     negative rho (up, down):  1.955E+00 0.000E+00

     total cpu time spent up to now is     2045.4 secs

     total energy              =   -7424.89154603 Ry
     Harris-Foulkes estimate   =   -7425.61254757 Ry
     estimated scf accuracy    <       3.51423387 Ry

     iteration #  5     ecut=    50.00 Ry     beta=0.70
     Davidson diagonalization with overlap
     ethr =  4.39E-04,  avg # of iterations =  5.3

     negative rho (up, down):  1.962E+00 0.000E+00

     total cpu time spent up to now is     2315.1 secs

     total energy              =   -7425.03193583 Ry
     Harris-Foulkes estimate   =   -7425.62044900 Ry
     estimated scf accuracy    <       4.79686756 Ry

     iteration #  6     ecut=    50.00 Ry     beta=0.70
     Davidson diagonalization with overlap
     ethr =  4.39E-04,  avg # of iterations =  3.0

     negative rho (up, down):  1.967E+00 0.000E+00

     total cpu time spent up to now is     2571.5 secs

     total energy              =   -7425.28687159 Ry
     Harris-Foulkes estimate   =   -7425.32911422 Ry
     estimated scf accuracy    <       0.14121528 Ry

     iteration #  7     ecut=    50.00 Ry     beta=0.70
     Davidson diagonalization with overlap
     ethr =  1.77E-05,  avg # of iterations =  8.2

     negative rho (up, down):  1.969E+00 0.000E+00

     total cpu time spent up to now is     2920.3 secs

     total energy              =   -7425.28620612 Ry
     Harris-Foulkes estimate   =   -7425.32243426 Ry
     estimated scf accuracy    <       0.16435081 Ry

     iteration #  8     ecut=    50.00 Ry     beta=0.70
     Davidson diagonalization with overlap
     ethr =  1.77E-05,  avg # of iterations =  3.5

     negative rho (up, down):  1.971E+00 0.000E+00

     total cpu time spent up to now is     3180.7 secs

     total energy              =   -7425.29057864 Ry
     Harris-Foulkes estimate   =   -7425.30907864 Ry
     estimated scf accuracy    <       0.07967665 Ry

     iteration #  9     ecut=    50.00 Ry     beta=0.70
     Davidson diagonalization with overlap
     ethr =  9.96E-06,  avg # of iterations =  5.5

     negative rho (up, down):  1.972E+00 0.000E+00

     total cpu time spent up to now is     3462.9 secs

     total energy              =   -7425.29128508 Ry
     Harris-Foulkes estimate   =   -7425.30354203 Ry
     estimated scf accuracy    <       0.04899575 Ry

     iteration # 10     ecut=    50.00 Ry     beta=0.70
     Davidson diagonalization with overlap
     ethr =  6.12E-06,  avg # of iterations =  6.2

     negative rho (up, down):  1.973E+00 0.000E+00

     total cpu time spent up to now is     3734.4 secs

     total energy              =   -7425.29369690 Ry
     Harris-Foulkes estimate   =   -7425.29688770 Ry
     estimated scf accuracy    <       0.00977499 Ry

     iteration # 11     ecut=    50.00 Ry     beta=0.70
     Davidson diagonalization with overlap
     ethr =  1.22E-06,  avg # of iterations =  7.5

     negative rho (up, down):  1.974E+00 0.000E+00

     total cpu time spent up to now is     4031.1 secs

     total energy              =   -7425.29398616 Ry
     Harris-Foulkes estimate   =   -7425.29529479 Ry
     estimated scf accuracy    <       0.00480878 Ry

     iteration # 12     ecut=    50.00 Ry     beta=0.70
     Davidson diagonalization with overlap
     ethr =  6.01E-07,  avg # of iterations =  4.2

     negative rho (up, down):  1.975E+00 0.000E+00

     total cpu time spent up to now is     4279.2 secs

     total energy              =   -7425.29322106 Ry
     Harris-Foulkes estimate   =   -7425.29443787 Ry
     estimated scf accuracy    <       0.00167911 Ry

     iteration # 13     ecut=    50.00 Ry     beta=0.70
     Davidson diagonalization with overlap
     ethr =  2.10E-07,  avg # of iterations =  9.3

     negative rho (up, down):  1.974E+00 0.000E+00

     total cpu time spent up to now is     4773.3 secs

     total energy              =   -7425.29273397 Ry
     Harris-Foulkes estimate   =   -7425.29469804 Ry
     estimated scf accuracy    <       0.00796504 Ry

     iteration # 14     ecut=    50.00 Ry     beta=0.70
     Davidson diagonalization with overlap
     ethr =  2.10E-07,  avg # of iterations =  3.0

     negative rho (up, down):  1.974E+00 0.000E+00

     total cpu time spent up to now is     5068.7 secs

     total energy              =   -7425.29353195 Ry
     Harris-Foulkes estimate   =   -7425.29386128 Ry
     estimated scf accuracy    <       0.00140483 Ry

     iteration # 15     ecut=    50.00 Ry     beta=0.70
     Davidson diagonalization with overlap
     ethr =  1.76E-07,  avg # of iterations =  2.0

     negative rho (up, down):  1.974E+00 0.000E+00

     total cpu time spent up to now is     5290.2 secs

     total energy              =   -7425.29358425 Ry
     Harris-Foulkes estimate   =   -7425.29383310 Ry
     estimated scf accuracy    <       0.00136718 Ry

     iteration # 16     ecut=    50.00 Ry     beta=0.70
     Davidson diagonalization with overlap
     ethr =  1.71E-07,  avg # of iterations =  1.0

     negative rho (up, down):  1.974E+00 0.000E+00

     total cpu time spent up to now is     5501.7 secs

     total energy              =   -7425.29366301 Ry
     Harris-Foulkes estimate   =   -7425.29380873 Ry
     estimated scf accuracy    <       0.00118398 Ry

     iteration # 17     ecut=    50.00 Ry     beta=0.70
     Davidson diagonalization with overlap
     ethr =  1.48E-07,  avg # of iterations =  1.0

     negative rho (up, down):  1.974E+00 0.000E+00

     total cpu time spent up to now is     5715.2 secs

     total energy              =   -7425.29372890 Ry
     Harris-Foulkes estimate   =   -7425.29374958 Ry
     estimated scf accuracy    <       0.00006075 Ry

     iteration # 18     ecut=    50.00 Ry     beta=0.70
     Davidson diagonalization with overlap
     ethr =  7.59E-09,  avg # of iterations =  2.0

     negative rho (up, down):  1.974E+00 0.000E+00

     total cpu time spent up to now is     5943.0 secs

     total energy              =   -7425.29373701 Ry
     Harris-Foulkes estimate   =   -7425.29374378 Ry
     estimated scf accuracy    <       0.00002489 Ry

     iteration # 19     ecut=    50.00 Ry     beta=0.70
     Davidson diagonalization with overlap
     ethr =  3.11E-09,  avg # of iterations =  2.5

     negative rho (up, down):  1.974E+00 0.000E+00

     total cpu time spent up to now is     6192.1 secs

     total energy              =   -7425.29373793 Ry
     Harris-Foulkes estimate   =   -7425.29374440 Ry
     estimated scf accuracy    <       0.00003378 Ry

     iteration # 20     ecut=    50.00 Ry     beta=0.70
     Davidson diagonalization with overlap
     ethr =  3.11E-09,  avg # of iterations =  2.0

     negative rho (up, down):  1.974E+00 0.000E+00

     total cpu time spent up to now is     6433.4 secs

     total energy              =   -7425.29374065 Ry
     Harris-Foulkes estimate   =   -7425.29374237 Ry
     estimated scf accuracy    <       0.00000664 Ry

     iteration # 21     ecut=    50.00 Ry     beta=0.70
     Davidson diagonalization with overlap
     ethr =  8.29E-10,  avg # of iterations =  2.0

     negative rho (up, down):  1.974E+00 0.000E+00

     total cpu time spent up to now is     6669.2 secs

     total energy              =   -7425.29374161 Ry
     Harris-Foulkes estimate   =   -7425.29374200 Ry
     estimated scf accuracy    <       0.00000205 Ry

     iteration # 22     ecut=    50.00 Ry     beta=0.70
     Davidson diagonalization with overlap
     ethr =  2.57E-10,  avg # of iterations =  3.0

     negative rho (up, down):  1.974E+00 0.000E+00

     total cpu time spent up to now is     6909.3 secs

     total energy              =   -7425.29374199 Ry
     Harris-Foulkes estimate   =   -7425.29374209 Ry
     estimated scf accuracy    <       0.00000070 Ry

     iteration # 23     ecut=    50.00 Ry     beta=0.70
     Davidson diagonalization with overlap
     ethr =  8.81E-11,  avg # of iterations =  3.0

     negative rho (up, down):  1.974E+00 0.000E+00

     total cpu time spent up to now is     7145.9 secs

     total energy              =   -7425.29374209 Ry
     Harris-Foulkes estimate   =   -7425.29374213 Ry
     estimated scf accuracy    <       0.00000015 Ry

     iteration # 24     ecut=    50.00 Ry     beta=0.70
     Davidson diagonalization with overlap
     ethr =  1.87E-11,  avg # of iterations =  2.0

     negative rho (up, down):  1.974E+00 0.000E+00

     total cpu time spent up to now is     7390.0 secs

     total energy              =   -7425.29374215 Ry
     Harris-Foulkes estimate   =   -7425.29374215 Ry
     estimated scf accuracy    <       0.00000021 Ry

     iteration # 25     ecut=    50.00 Ry     beta=0.70
     Davidson diagonalization with overlap
     ethr =  1.87E-11,  avg # of iterations =  2.0

     negative rho (up, down):  1.974E+00 0.000E+00

     total cpu time spent up to now is     7610.0 secs

     total energy              =   -7425.29374218 Ry
     Harris-Foulkes estimate   =   -7425.29374219 Ry
     estimated scf accuracy    <       0.00000009 Ry

     iteration # 26     ecut=    50.00 Ry     beta=0.70
     Davidson diagonalization with overlap
     ethr =  1.18E-11,  avg # of iterations =  2.0

     negative rho (up, down):  1.974E+00 0.000E+00

     total cpu time spent up to now is     7827.0 secs

     total energy              =   -7425.29374219 Ry
     Harris-Foulkes estimate   =   -7425.29374221 Ry
     estimated scf accuracy    <       0.00000032 Ry

     iteration # 27     ecut=    50.00 Ry     beta=0.70
     Davidson diagonalization with overlap
     ethr =  1.18E-11,  avg # of iterations =  2.0

     negative rho (up, down):  1.974E+00 0.000E+00

     total cpu time spent up to now is     8054.0 secs

     total energy              =   -7425.29374222 Ry
     Harris-Foulkes estimate   =   -7425.29374221 Ry
     estimated scf accuracy    <       0.00000003 Ry

     iteration # 28     ecut=    50.00 Ry     beta=0.70
     Davidson diagonalization with overlap
     ethr =  3.17E-12,  avg # of iterations =  3.0

     negative rho (up, down):  1.974E+00 0.000E+00

     total cpu time spent up to now is     8295.2 secs

     total energy              =   -7425.29374223 Ry
     Harris-Foulkes estimate   =   -7425.29374222 Ry
     estimated scf accuracy    <       0.00000002 Ry

     iteration # 29     ecut=    50.00 Ry     beta=0.70
     Davidson diagonalization with overlap
     ethr =  2.00E-12,  avg # of iterations =  2.0

     negative rho (up, down):  1.974E+00 0.000E+00

     total cpu time spent up to now is     8518.2 secs

     End of self-consistent calculation

          k = 0.2500 0.2500 0.0833 (167653 PWs)   bands (ev):

   -19.5429  -7.3541  -6.7347  -6.2065  -6.2056  -5.7765  -5.3677  -5.2746
    -5.2737  -5.0781  -5.0781  -4.9609  -4.9600  -4.8817  -4.8589  -4.7858
    -4.7007  -4.6972  -4.6583  -4.6582  -4.4973  -4.4803  -4.4797  -4.4789
    -4.4726  -4.4166  -4.4166  -4.4050  -4.4043  -4.3677  -4.3554  -4.3547
    -4.3129  -4.3128  -4.2793  -4.2781  -4.2265  -4.2257  -4.2156  -4.2140
    -4.2089  -4.1956  -4.1956  -4.1542  -4.1363  -4.1359  -4.1294  -4.1290
    -4.0974  -4.0474  -4.0323  -4.0316  -4.0284  -4.0281  -4.0201  -4.0147
    -4.0141  -4.0141  -3.9496  -3.9491  -3.8994  -3.8992  -3.8869  -3.8607
    -3.8607  -3.8410  -3.8382  -3.8378  -3.8336  -3.8303  -3.7816  -3.7813
    -3.7685  -3.7678  -3.6677  -3.6633  -3.6576  -3.6571  -3.6246  -3.6139
    -3.6092  -3.5962  -3.5660  -3.5646  -3.5377  -3.5359  -3.5156  -3.5149
    -3.5021  -3.5012  -3.4470  -3.4465  -3.4277  -3.4133  -3.4011  -3.4000
    -3.3996  -3.3984  -3.3714  -3.3710  -3.3348  -3.3341  -3.3122  -3.3117
    -3.2794  -3.2791  -3.2607  -3.2333  -3.2332  -3.1960  -3.1956  -3.1602
    -3.1529  -3.1520  -3.1383  -3.1377  -3.1330  -3.1326  -3.0935  -3.0848
    -3.0433  -3.0433  -3.0354  -3.0261  -3.0251  -3.0233  -2.9995  -2.9994
    -2.9783  -2.9779  -2.9770  -2.9505  -2.9505  -2.9430  -2.9401  -2.9400
    -2.9045  -2.8994  -2.8647  -2.8639  -2.8634  -2.8605  -2.8604  -2.7813
    -2.7713  -2.7673  -2.7663  -2.7654  -2.7650  -2.7602  -2.7601  -2.7599
    -2.7591  -2.7501  -2.7423  -2.7253  -2.7226  -2.7224  -2.7210  -2.7072
    -2.7024  -2.6642  -2.6635  -2.6634  -2.6597  -2.6586  -2.6411  -2.6405
    -2.6318  -2.6318  -2.6295  -2.5701  -2.5700  -2.5646  -2.5645  -2.5596
    -2.5592  -2.5312  -2.4719  -2.4710  -2.4705  -2.4690  -2.4574  -2.4554
    -2.4502  -2.4394  -2.4391  -2.4028  -2.4017  -2.3937  -2.3928  -2.3923
    -2.3921  -2.3530  -2.3523  -2.3429  -2.3427  -2.3412  -2.3407  -2.2989
    -2.2826  -2.2778  -2.2243  -2.2238  -2.2055  -2.2041  -2.1987  -2.1983
    -2.1504  -2.1491  -2.1261  -2.1099  -2.0959  -2.0948  -2.0944  -2.0728
    -2.0725  -2.0629  -2.0461  -2.0050  -2.0041  -1.9919  -1.9918  -1.9910
    -1.9798  -1.9797  -1.9644  -1.9641  -1.9620  -1.9596  -1.9559  -1.9551
    -1.9534  -1.9422  -1.9417  -1.9243  -1.9238  -1.9218  -1.9159  -1.9128
    -1.9122  -1.8890  -1.8884  -1.8773  -1.8752  -1.8713  -1.8696  -1.8318
    -1.7986  -1.7975  -1.7626  -1.7456  -1.7451  -1.7351  -1.7346  -1.7114
    -1.7104  -1.6971  -1.6961  -1.6947  -1.6942  -1.6922  -1.6913  -1.6587
    -1.6583  -1.6578  -1.6124  -1.6116  -1.5736  -1.5722  -1.5542  -1.5246
    -1.5242  -1.5122  -1.4898  -1.4842  -1.4827  -1.4654  -1.4635  -1.4469
    -1.4461  -1.4419  -1.4416  -1.4398  -1.4391  -1.4381  -1.4352  -1.4164
    -1.4156  -1.4050  -1.3883  -1.3692  -1.3688  -1.3432  -1.3431  -1.3402
    -1.3395  -1.3369  -1.3329  -1.3117  -1.3114  -1.2971  -1.2952  -1.2832
    -1.2737  -1.2602  -1.2592  -1.2291  -1.2285  -1.2207  -1.2201  -1.1854
    -1.1845  -1.1769  -1.1760  -1.1680  -1.1673  -1.1464  -1.1458  -1.1341
    -1.1276  -1.1271  -1.1145  -1.1140  -1.1131  -1.1119  -1.0988  -1.0884
    -1.0876  -1.0804  -1.0801  -1.0681  -1.0635  -1.0626  -1.0567  -1.0176
    -1.0152  -1.0092  -1.0086  -1.0084  -1.0056  -0.9680  -0.9519  -0.9508
    -0.9506  -0.9498  -0.9454  -0.9451  -0.9408  -0.9269  -0.9262  -0.8894
    -0.8880  -0.8818  -0.8816  -0.8589  -0.8585  -0.8489  -0.8191  -0.8114
    -0.7843  -0.7836  -0.7560  -0.7557  -0.7527  -0.7520  -0.7512  -0.7475
    -0.7436  -0.7417  -0.7373  -0.7369  -0.7052  -0.7047  -0.6876  -0.6855
    -0.6815  -0.6814  -0.6798  -0.6778  -0.6608  -0.3828  -0.3764  -0.3206
    -0.3153  -0.2794  -0.1188  -0.0539  -0.0531  -0.0216   0.2653   0.2664
     0.5938   0.5986   0.6945   0.6948   0.7350   0.7369   0.8782   0.8813
     1.0037   1.0050   1.0917   1.6904   1.7089   1.7094   1.7494   1.7529
     1.7935   1.8028   1.8779   1.8811   2.0859   2.0869   2.3199   2.3991
     2.4045   2.4174   2.7940   2.8020   2.8713   2.8734   2.8787   2.8800
     3.0306   3.0315   3.0699   3.1720   3.1767   3.4022   3.4123   3.5409
     3.5674   3.5698   3.8379   3.8412   3.9500   3.9715   3.9715   4.0115
     4.0326   4.1575   4.1596   4.3949   4.3964   4.4755   4.4836   4.6018
     4.6076   4.6162   4.6284   4.6383   4.7984   5.4007   5.4053   5.4371
     5.5354   5.5400   5.5987   5.7010   5.7190   5.7213   5.7367   5.8325
     5.8329   5.8882   5.8890   5.9313   5.9719   6.0554   6.0675   6.1660
     6.1758   6.1912   6.1985   6.2144   6.2272   6.2305   6.2388   6.2430

          k = 0.2500 0.2500-0.2500 (167588 PWs)   bands (ev):

   -19.5429  -7.3541  -6.7347  -6.2065  -6.2056  -5.7765  -5.3677  -5.2746
    -5.2737  -5.0781  -5.0781  -4.9609  -4.9600  -4.8817  -4.8589  -4.7858
    -4.7007  -4.6972  -4.6583  -4.6582  -4.4973  -4.4803  -4.4797  -4.4789
    -4.4726  -4.4166  -4.4166  -4.4050  -4.4043  -4.3677  -4.3554  -4.3547
    -4.3129  -4.3128  -4.2793  -4.2782  -4.2265  -4.2257  -4.2156  -4.2140
    -4.2089  -4.1956  -4.1956  -4.1542  -4.1363  -4.1359  -4.1294  -4.1290
    -4.0974  -4.0474  -4.0323  -4.0316  -4.0284  -4.0281  -4.0201  -4.0147
    -4.0141  -4.0141  -3.9496  -3.9491  -3.8994  -3.8992  -3.8869  -3.8607
    -3.8606  -3.8410  -3.8382  -3.8378  -3.8336  -3.8303  -3.7816  -3.7814
    -3.7685  -3.7678  -3.6677  -3.6633  -3.6576  -3.6571  -3.6246  -3.6139
    -3.6092  -3.5962  -3.5660  -3.5646  -3.5377  -3.5359  -3.5156  -3.5149
    -3.5021  -3.5012  -3.4470  -3.4465  -3.4277  -3.4134  -3.4011  -3.4000
    -3.3996  -3.3984  -3.3714  -3.3710  -3.3348  -3.3341  -3.3122  -3.3117
    -3.2794  -3.2790  -3.2607  -3.2333  -3.2332  -3.1960  -3.1956  -3.1602
    -3.1529  -3.1520  -3.1383  -3.1377  -3.1330  -3.1325  -3.0935  -3.0849
    -3.0433  -3.0433  -3.0354  -3.0261  -3.0251  -3.0233  -2.9995  -2.9994
    -2.9783  -2.9779  -2.9770  -2.9505  -2.9505  -2.9430  -2.9401  -2.9400
    -2.9045  -2.8994  -2.8647  -2.8639  -2.8634  -2.8605  -2.8604  -2.7813
    -2.7713  -2.7673  -2.7663  -2.7654  -2.7650  -2.7602  -2.7601  -2.7599
    -2.7591  -2.7501  -2.7424  -2.7254  -2.7226  -2.7224  -2.7210  -2.7072
    -2.7024  -2.6642  -2.6635  -2.6634  -2.6597  -2.6586  -2.6411  -2.6405
    -2.6318  -2.6318  -2.6295  -2.5701  -2.5700  -2.5646  -2.5645  -2.5595
    -2.5592  -2.5312  -2.4719  -2.4710  -2.4705  -2.4690  -2.4574  -2.4554
    -2.4502  -2.4394  -2.4391  -2.4028  -2.4017  -2.3937  -2.3928  -2.3923
    -2.3921  -2.3530  -2.3523  -2.3429  -2.3427  -2.3412  -2.3407  -2.2989
    -2.2826  -2.2778  -2.2243  -2.2238  -2.2055  -2.2042  -2.1987  -2.1983
    -2.1504  -2.1491  -2.1261  -2.1099  -2.0959  -2.0948  -2.0944  -2.0728
    -2.0725  -2.0629  -2.0461  -2.0050  -2.0041  -1.9919  -1.9918  -1.9909
    -1.9798  -1.9797  -1.9644  -1.9641  -1.9620  -1.9596  -1.9559  -1.9551
    -1.9534  -1.9422  -1.9416  -1.9243  -1.9238  -1.9218  -1.9159  -1.9127
    -1.9122  -1.8890  -1.8884  -1.8773  -1.8752  -1.8713  -1.8696  -1.8318
    -1.7986  -1.7975  -1.7626  -1.7456  -1.7451  -1.7351  -1.7346  -1.7114
    -1.7104  -1.6971  -1.6961  -1.6947  -1.6941  -1.6922  -1.6912  -1.6587
    -1.6584  -1.6578  -1.6124  -1.6116  -1.5736  -1.5722  -1.5541  -1.5246
    -1.5242  -1.5122  -1.4898  -1.4842  -1.4827  -1.4654  -1.4635  -1.4469
    -1.4461  -1.4419  -1.4416  -1.4398  -1.4391  -1.4381  -1.4352  -1.4164
    -1.4156  -1.4050  -1.3883  -1.3692  -1.3688  -1.3432  -1.3431  -1.3402
    -1.3395  -1.3369  -1.3329  -1.3117  -1.3114  -1.2971  -1.2952  -1.2832
    -1.2737  -1.2602  -1.2592  -1.2291  -1.2285  -1.2207  -1.2201  -1.1854
    -1.1845  -1.1769  -1.1760  -1.1680  -1.1673  -1.1464  -1.1458  -1.1341
    -1.1276  -1.1271  -1.1145  -1.1140  -1.1131  -1.1119  -1.0988  -1.0884
    -1.0876  -1.0804  -1.0801  -1.0681  -1.0635  -1.0626  -1.0567  -1.0176
    -1.0152  -1.0092  -1.0086  -1.0084  -1.0056  -0.9680  -0.9519  -0.9508
    -0.9506  -0.9498  -0.9454  -0.9451  -0.9408  -0.9269  -0.9262  -0.8894
    -0.8880  -0.8818  -0.8816  -0.8589  -0.8585  -0.8489  -0.8191  -0.8114
    -0.7843  -0.7836  -0.7560  -0.7557  -0.7527  -0.7520  -0.7512  -0.7475
    -0.7436  -0.7417  -0.7373  -0.7369  -0.7052  -0.7047  -0.6876  -0.6856
    -0.6815  -0.6814  -0.6798  -0.6778  -0.6608  -0.3828  -0.3764  -0.3206
    -0.3153  -0.2794  -0.1188  -0.0539  -0.0530  -0.0216   0.2653   0.2664
     0.5938   0.5986   0.6945   0.6948   0.7350   0.7369   0.8782   0.8814
     1.0037   1.0050   1.0917   1.6904   1.7089   1.7094   1.7494   1.7529
     1.7935   1.8028   1.8779   1.8811   2.0859   2.0869   2.3199   2.3991
     2.4045   2.4174   2.7940   2.8020   2.8713   2.8734   2.8787   2.8800
     3.0306   3.0315   3.0700   3.1721   3.1767   3.4022   3.4123   3.5409
     3.5674   3.5698   3.8379   3.8412   3.9500   3.9715   3.9715   4.0118
     4.0326   4.1575   4.1596   4.3949   4.3964   4.4754   4.4836   4.6006
     4.6076   4.6158   4.6284   4.6383   4.7978   5.4002   5.4055   5.4096
     5.5354   5.5397   5.6707   5.6884   5.7187   5.7217   5.7365   5.8324
     5.8329   5.8882   5.8890   5.9314   5.9883   6.0346   6.1104   6.1562
     6.1830   6.1987   6.2138   6.2210   6.2273   6.2308   6.2388   6.2432

          k =-0.2500-0.2500 0.0833 (167653 PWs)   bands (ev):

   -19.5429  -7.3541  -6.7347  -6.2065  -6.2056  -5.7765  -5.3677  -5.2746
    -5.2737  -5.0781  -5.0781  -4.9609  -4.9600  -4.8817  -4.8589  -4.7858
    -4.7007  -4.6972  -4.6583  -4.6582  -4.4973  -4.4803  -4.4797  -4.4789
    -4.4726  -4.4166  -4.4166  -4.4050  -4.4043  -4.3677  -4.3554  -4.3547
    -4.3129  -4.3128  -4.2793  -4.2781  -4.2265  -4.2257  -4.2156  -4.2140
    -4.2089  -4.1956  -4.1956  -4.1542  -4.1363  -4.1359  -4.1294  -4.1290
    -4.0974  -4.0474  -4.0323  -4.0316  -4.0284  -4.0281  -4.0201  -4.0147
    -4.0141  -4.0141  -3.9496  -3.9491  -3.8994  -3.8992  -3.8869  -3.8607
    -3.8607  -3.8410  -3.8382  -3.8378  -3.8336  -3.8303  -3.7816  -3.7813
    -3.7685  -3.7678  -3.6677  -3.6633  -3.6576  -3.6571  -3.6246  -3.6139
    -3.6092  -3.5962  -3.5660  -3.5646  -3.5377  -3.5359  -3.5156  -3.5149
    -3.5021  -3.5012  -3.4470  -3.4465  -3.4277  -3.4133  -3.4011  -3.4000
    -3.3996  -3.3984  -3.3714  -3.3710  -3.3348  -3.3341  -3.3122  -3.3117
    -3.2794  -3.2791  -3.2607  -3.2333  -3.2332  -3.1960  -3.1956  -3.1602
    -3.1529  -3.1520  -3.1383  -3.1377  -3.1330  -3.1326  -3.0935  -3.0848
    -3.0433  -3.0433  -3.0354  -3.0261  -3.0251  -3.0233  -2.9995  -2.9994
    -2.9783  -2.9779  -2.9770  -2.9505  -2.9505  -2.9430  -2.9401  -2.9400
    -2.9045  -2.8994  -2.8647  -2.8639  -2.8634  -2.8605  -2.8604  -2.7813
    -2.7713  -2.7673  -2.7663  -2.7654  -2.7650  -2.7602  -2.7601  -2.7599
    -2.7591  -2.7501  -2.7423  -2.7253  -2.7226  -2.7224  -2.7210  -2.7072
    -2.7024  -2.6642  -2.6635  -2.6634  -2.6597  -2.6586  -2.6411  -2.6405
    -2.6318  -2.6318  -2.6295  -2.5701  -2.5700  -2.5646  -2.5645  -2.5596
    -2.5592  -2.5312  -2.4719  -2.4710  -2.4705  -2.4690  -2.4574  -2.4554
    -2.4502  -2.4394  -2.4391  -2.4028  -2.4017  -2.3937  -2.3928  -2.3923
    -2.3921  -2.3530  -2.3523  -2.3429  -2.3427  -2.3412  -2.3407  -2.2989
    -2.2826  -2.2778  -2.2243  -2.2238  -2.2055  -2.2041  -2.1987  -2.1983
    -2.1504  -2.1491  -2.1261  -2.1099  -2.0959  -2.0948  -2.0944  -2.0728
    -2.0725  -2.0629  -2.0461  -2.0050  -2.0041  -1.9919  -1.9918  -1.9910
    -1.9798  -1.9797  -1.9644  -1.9641  -1.9620  -1.9596  -1.9559  -1.9551
    -1.9534  -1.9422  -1.9417  -1.9243  -1.9238  -1.9218  -1.9159  -1.9128
    -1.9122  -1.8890  -1.8884  -1.8773  -1.8752  -1.8713  -1.8696  -1.8318
    -1.7986  -1.7975  -1.7626  -1.7456  -1.7451  -1.7351  -1.7346  -1.7114
    -1.7104  -1.6971  -1.6961  -1.6947  -1.6942  -1.6922  -1.6913  -1.6587
    -1.6583  -1.6578  -1.6124  -1.6116  -1.5736  -1.5722  -1.5542  -1.5246
    -1.5242  -1.5122  -1.4898  -1.4842  -1.4827  -1.4654  -1.4635  -1.4469
    -1.4461  -1.4419  -1.4416  -1.4398  -1.4391  -1.4381  -1.4352  -1.4164
    -1.4156  -1.4050  -1.3883  -1.3692  -1.3688  -1.3432  -1.3431  -1.3402
    -1.3395  -1.3369  -1.3329  -1.3117  -1.3114  -1.2971  -1.2952  -1.2832
    -1.2737  -1.2602  -1.2592  -1.2291  -1.2285  -1.2207  -1.2201  -1.1854
    -1.1845  -1.1769  -1.1760  -1.1680  -1.1673  -1.1464  -1.1458  -1.1341
    -1.1276  -1.1271  -1.1145  -1.1140  -1.1131  -1.1119  -1.0988  -1.0884
    -1.0876  -1.0804  -1.0801  -1.0681  -1.0635  -1.0626  -1.0567  -1.0176
    -1.0152  -1.0092  -1.0086  -1.0084  -1.0056  -0.9680  -0.9519  -0.9508
    -0.9506  -0.9498  -0.9454  -0.9451  -0.9408  -0.9269  -0.9262  -0.8894
    -0.8880  -0.8818  -0.8816  -0.8589  -0.8585  -0.8489  -0.8191  -0.8114
    -0.7843  -0.7836  -0.7560  -0.7557  -0.7527  -0.7520  -0.7512  -0.7475
    -0.7436  -0.7417  -0.7373  -0.7369  -0.7052  -0.7047  -0.6876  -0.6855
    -0.6815  -0.6814  -0.6798  -0.6778  -0.6608  -0.3828  -0.3764  -0.3206
    -0.3153  -0.2794  -0.1188  -0.0539  -0.0531  -0.0216   0.2653   0.2664
     0.5938   0.5986   0.6945   0.6948   0.7350   0.7369   0.8782   0.8813
     1.0037   1.0050   1.0917   1.6904   1.7089   1.7094   1.7494   1.7529
     1.7935   1.8028   1.8779   1.8811   2.0859   2.0869   2.3199   2.3991
     2.4045   2.4174   2.7940   2.8020   2.8713   2.8734   2.8787   2.8800
     3.0306   3.0315   3.0699   3.1720   3.1767   3.4022   3.4123   3.5409
     3.5674   3.5698   3.8379   3.8412   3.9500   3.9715   3.9715   4.0115
     4.0326   4.1575   4.1596   4.3949   4.3964   4.4755   4.4836   4.6018
     4.6076   4.6162   4.6284   4.6383   4.7984   5.4008   5.4053   5.4366
     5.5354   5.5400   5.5998   5.7010   5.7190   5.7213   5.7365   5.8325
     5.8329   5.8882   5.8890   5.9313   5.9721   6.0541   6.0656   6.1660
     6.1757   6.1928   6.1992   6.2144   6.2272   6.2305   6.2388   6.2430

          k =-0.2500 0.2500-0.0833 (167653 PWs)   bands (ev):

   -19.5429  -7.3541  -6.7347  -6.2068  -6.2053  -5.7765  -5.3677  -5.2749
    -5.2734  -5.0782  -5.0781  -4.9614  -4.9595  -4.8817  -4.8589  -4.7858
    -4.7007  -4.6972  -4.6584  -4.6581  -4.4973  -4.4803  -4.4800  -4.4786
    -4.4726  -4.4166  -4.4166  -4.4052  -4.4040  -4.3677  -4.3559  -4.3543
    -4.3130  -4.3127  -4.2793  -4.2781  -4.2269  -4.2253  -4.2156  -4.2140
    -4.2089  -4.1956  -4.1956  -4.1542  -4.1365  -4.1357  -4.1295  -4.1289
    -4.0974  -4.0475  -4.0325  -4.0314  -4.0284  -4.0280  -4.0201  -4.0147
    -4.0142  -4.0140  -3.9500  -3.9486  -3.8997  -3.8989  -3.8869  -3.8607
    -3.8606  -3.8410  -3.8382  -3.8378  -3.8336  -3.8303  -3.7816  -3.7813
    -3.7687  -3.7676  -3.6675  -3.6637  -3.6575  -3.6572  -3.6246  -3.6140
    -3.6092  -3.5962  -3.5660  -3.5646  -3.5380  -3.5357  -3.5158  -3.5147
    -3.5025  -3.5008  -3.4472  -3.4463  -3.4277  -3.4133  -3.4011  -3.4000
    -3.3995  -3.3984  -3.3715  -3.3708  -3.3348  -3.3341  -3.3124  -3.3116
    -3.2795  -3.2789  -3.2607  -3.2333  -3.2331  -3.1962  -3.1954  -3.1602
    -3.1529  -3.1520  -3.1385  -3.1375  -3.1331  -3.1325  -3.0935  -3.0849
    -3.0433  -3.0433  -3.0354  -3.0258  -3.0255  -3.0232  -2.9995  -2.9993
    -2.9786  -2.9780  -2.9765  -2.9505  -2.9505  -2.9430  -2.9401  -2.9401
    -2.9045  -2.8993  -2.8649  -2.8637  -2.8634  -2.8605  -2.8603  -2.7813
    -2.7713  -2.7676  -2.7660  -2.7656  -2.7648  -2.7604  -2.7602  -2.7600
    -2.7588  -2.7501  -2.7423  -2.7253  -2.7227  -2.7225  -2.7208  -2.7072
    -2.7024  -2.6642  -2.6638  -2.6632  -2.6601  -2.6582  -2.6413  -2.6403
    -2.6319  -2.6318  -2.6295  -2.5702  -2.5699  -2.5646  -2.5645  -2.5594
    -2.5593  -2.5312  -2.4719  -2.4711  -2.4704  -2.4690  -2.4574  -2.4554
    -2.4502  -2.4395  -2.4389  -2.4033  -2.4012  -2.3942  -2.3930  -2.3921
    -2.3918  -2.3532  -2.3521  -2.3429  -2.3427  -2.3413  -2.3406  -2.2988
    -2.2826  -2.2779  -2.2244  -2.2236  -2.2055  -2.2041  -2.1987  -2.1984
    -2.1509  -2.1487  -2.1261  -2.1100  -2.0960  -2.0947  -2.0945  -2.0729
    -2.0723  -2.0629  -2.0461  -2.0053  -2.0038  -1.9921  -1.9920  -1.9904
    -1.9799  -1.9794  -1.9644  -1.9638  -1.9625  -1.9596  -1.9564  -1.9553
    -1.9525  -1.9425  -1.9414  -1.9244  -1.9237  -1.9218  -1.9158  -1.9130
    -1.9120  -1.8893  -1.8881  -1.8773  -1.8752  -1.8716  -1.8692  -1.8318
    -1.7991  -1.7970  -1.7626  -1.7458  -1.7450  -1.7350  -1.7340  -1.7116
    -1.7114  -1.6964  -1.6956  -1.6942  -1.6942  -1.6916  -1.6907  -1.6589
    -1.6583  -1.6576  -1.6126  -1.6119  -1.5741  -1.5714  -1.5580  -1.5250
    -1.5225  -1.5115  -1.4898  -1.4840  -1.4827  -1.4649  -1.4645  -1.4473
    -1.4451  -1.4423  -1.4413  -1.4403  -1.4383  -1.4372  -1.4364  -1.4163
    -1.4160  -1.4049  -1.3884  -1.3693  -1.3691  -1.3434  -1.3430  -1.3406
    -1.3392  -1.3359  -1.3326  -1.3125  -1.3109  -1.2981  -1.2943  -1.2829
    -1.2737  -1.2607  -1.2588  -1.2293  -1.2284  -1.2209  -1.2200  -1.1861
    -1.1837  -1.1772  -1.1757  -1.1683  -1.1672  -1.1466  -1.1456  -1.1341
    -1.1278  -1.1268  -1.1148  -1.1143  -1.1130  -1.1114  -1.0988  -1.0881
    -1.0877  -1.0806  -1.0801  -1.0680  -1.0643  -1.0624  -1.0567  -1.0178
    -1.0147  -1.0093  -1.0088  -1.0086  -1.0056  -0.9680  -0.9525  -0.9508
    -0.9503  -0.9496  -0.9461  -0.9447  -0.9408  -0.9268  -0.9262  -0.8898
    -0.8876  -0.8818  -0.8815  -0.8590  -0.8584  -0.8489  -0.8191  -0.8114
    -0.7846  -0.7833  -0.7561  -0.7557  -0.7527  -0.7520  -0.7512  -0.7475
    -0.7435  -0.7418  -0.7375  -0.7366  -0.7055  -0.7044  -0.6883  -0.6851
    -0.6818  -0.6809  -0.6804  -0.6770  -0.6608  -0.3828  -0.3764  -0.3222
    -0.3138  -0.2794  -0.1186  -0.0542  -0.0526  -0.0215   0.2647   0.2670
     0.5923   0.6001   0.6943   0.6951   0.7343   0.7378   0.8766   0.8826
     1.0037   1.0049   1.0919   1.6907   1.7090   1.7094   1.7489   1.7529
     1.7897   1.8061   1.8767   1.8825   2.0854   2.0875   2.3198   2.3975
     2.4060   2.4175   2.7909   2.8042   2.8711   2.8737   2.8783   2.8805
     3.0308   3.0313   3.0685   3.1694   3.1814   3.4021   3.4137   3.5408
     3.5664   3.5707   3.8362   3.8430   3.9511   3.9712   3.9723   4.0217
     4.0241   4.1567   4.1607   4.3948   4.3966   4.4817   4.4829   4.5683
     4.6072   4.6133   4.6250   4.6439   4.8248   5.3812   5.4176   5.4836
     5.5249   5.5463   5.5976   5.6375   5.7171   5.7232   5.7402   5.8314
     5.8339   5.8875   5.8900   5.9326   5.9773   6.0006   6.1324   6.1470
     6.1749   6.2021   6.2137   6.2247   6.2267   6.2292   6.2364   6.2390

          k = 0.2500-0.2500-0.0833 (167653 PWs)   bands (ev):

   -19.5429  -7.3541  -6.7347  -6.2068  -6.2053  -5.7765  -5.3677  -5.2749
    -5.2734  -5.0782  -5.0781  -4.9614  -4.9595  -4.8817  -4.8589  -4.7858
    -4.7007  -4.6972  -4.6584  -4.6581  -4.4973  -4.4803  -4.4800  -4.4786
    -4.4726  -4.4166  -4.4166  -4.4052  -4.4040  -4.3677  -4.3559  -4.3543
    -4.3130  -4.3127  -4.2793  -4.2781  -4.2269  -4.2253  -4.2156  -4.2140
    -4.2089  -4.1956  -4.1956  -4.1542  -4.1365  -4.1357  -4.1295  -4.1289
    -4.0974  -4.0475  -4.0325  -4.0314  -4.0284  -4.0280  -4.0201  -4.0147
    -4.0142  -4.0140  -3.9500  -3.9486  -3.8997  -3.8989  -3.8869  -3.8607
    -3.8606  -3.8410  -3.8382  -3.8378  -3.8336  -3.8303  -3.7816  -3.7813
    -3.7687  -3.7676  -3.6675  -3.6637  -3.6575  -3.6572  -3.6246  -3.6140
    -3.6092  -3.5962  -3.5660  -3.5646  -3.5380  -3.5357  -3.5158  -3.5147
    -3.5025  -3.5008  -3.4472  -3.4463  -3.4277  -3.4133  -3.4011  -3.4000
    -3.3995  -3.3984  -3.3715  -3.3708  -3.3348  -3.3341  -3.3124  -3.3116
    -3.2795  -3.2789  -3.2607  -3.2333  -3.2331  -3.1962  -3.1954  -3.1602
    -3.1529  -3.1520  -3.1385  -3.1375  -3.1331  -3.1325  -3.0935  -3.0849
    -3.0433  -3.0433  -3.0354  -3.0258  -3.0255  -3.0232  -2.9995  -2.9993
    -2.9786  -2.9780  -2.9765  -2.9505  -2.9505  -2.9430  -2.9401  -2.9401
    -2.9045  -2.8993  -2.8649  -2.8637  -2.8634  -2.8605  -2.8603  -2.7813
    -2.7713  -2.7676  -2.7660  -2.7656  -2.7648  -2.7604  -2.7602  -2.7600
    -2.7588  -2.7501  -2.7423  -2.7253  -2.7227  -2.7225  -2.7208  -2.7072
    -2.7024  -2.6642  -2.6638  -2.6632  -2.6601  -2.6582  -2.6413  -2.6403
    -2.6319  -2.6318  -2.6295  -2.5702  -2.5699  -2.5646  -2.5645  -2.5594
    -2.5593  -2.5312  -2.4719  -2.4711  -2.4704  -2.4690  -2.4574  -2.4554
    -2.4502  -2.4395  -2.4389  -2.4033  -2.4012  -2.3942  -2.3930  -2.3921
    -2.3918  -2.3532  -2.3521  -2.3429  -2.3427  -2.3413  -2.3406  -2.2988
    -2.2826  -2.2779  -2.2244  -2.2236  -2.2055  -2.2041  -2.1987  -2.1984
    -2.1509  -2.1487  -2.1261  -2.1100  -2.0960  -2.0947  -2.0945  -2.0729
    -2.0723  -2.0629  -2.0461  -2.0053  -2.0038  -1.9921  -1.9920  -1.9904
    -1.9799  -1.9794  -1.9644  -1.9638  -1.9625  -1.9596  -1.9564  -1.9553
    -1.9525  -1.9425  -1.9414  -1.9244  -1.9237  -1.9218  -1.9158  -1.9130
    -1.9120  -1.8893  -1.8881  -1.8773  -1.8752  -1.8716  -1.8692  -1.8318
    -1.7991  -1.7970  -1.7626  -1.7458  -1.7450  -1.7350  -1.7340  -1.7116
    -1.7114  -1.6964  -1.6956  -1.6942  -1.6942  -1.6916  -1.6907  -1.6589
    -1.6583  -1.6576  -1.6126  -1.6119  -1.5741  -1.5714  -1.5580  -1.5250
    -1.5225  -1.5115  -1.4898  -1.4840  -1.4827  -1.4649  -1.4645  -1.4473
    -1.4451  -1.4423  -1.4413  -1.4403  -1.4383  -1.4372  -1.4364  -1.4163
    -1.4160  -1.4049  -1.3884  -1.3693  -1.3691  -1.3434  -1.3430  -1.3406
    -1.3392  -1.3359  -1.3326  -1.3125  -1.3109  -1.2981  -1.2943  -1.2829
    -1.2737  -1.2607  -1.2588  -1.2293  -1.2284  -1.2209  -1.2200  -1.1861
    -1.1837  -1.1772  -1.1757  -1.1683  -1.1672  -1.1466  -1.1456  -1.1341
    -1.1278  -1.1268  -1.1148  -1.1143  -1.1130  -1.1114  -1.0988  -1.0881
    -1.0877  -1.0806  -1.0801  -1.0680  -1.0643  -1.0624  -1.0567  -1.0178
    -1.0147  -1.0093  -1.0088  -1.0086  -1.0056  -0.9680  -0.9525  -0.9508
    -0.9503  -0.9496  -0.9461  -0.9447  -0.9408  -0.9268  -0.9262  -0.8898
    -0.8876  -0.8818  -0.8815  -0.8590  -0.8584  -0.8489  -0.8191  -0.8114
    -0.7846  -0.7833  -0.7561  -0.7557  -0.7527  -0.7520  -0.7512  -0.7475
    -0.7435  -0.7418  -0.7375  -0.7366  -0.7055  -0.7044  -0.6883  -0.6851
    -0.6818  -0.6809  -0.6804  -0.6770  -0.6608  -0.3828  -0.3764  -0.3222
    -0.3138  -0.2794  -0.1186  -0.0542  -0.0526  -0.0215   0.2647   0.2670
     0.5923   0.6001   0.6943   0.6951   0.7343   0.7378   0.8766   0.8826
     1.0037   1.0049   1.0919   1.6907   1.7090   1.7094   1.7489   1.7529
     1.7897   1.8061   1.8767   1.8825   2.0854   2.0875   2.3198   2.3975
     2.4060   2.4175   2.7909   2.8042   2.8711   2.8737   2.8783   2.8805
     3.0308   3.0313   3.0685   3.1694   3.1814   3.4021   3.4137   3.5408
     3.5664   3.5707   3.8362   3.8430   3.9511   3.9712   3.9723   4.0217
     4.0241   4.1567   4.1607   4.3948   4.3966   4.4817   4.4829   4.5683
     4.6072   4.6133   4.6250   4.6439   4.8248   5.3812   5.4176   5.4835
     5.5250   5.5463   5.5980   5.6372   5.7171   5.7232   5.7403   5.8314
     5.8339   5.8875   5.8900   5.9326   5.9773   6.0006   6.1318   6.1476
     6.1749   6.2023   6.2137   6.2248   6.2268   6.2291   6.2364   6.2389

          k =-0.2500 0.2500 0.2500 (167588 PWs)   bands (ev):

   -19.5429  -7.3541  -6.7347  -6.2068  -6.2053  -5.7765  -5.3677  -5.2749
    -5.2734  -5.0782  -5.0781  -4.9614  -4.9595  -4.8817  -4.8589  -4.7858
    -4.7007  -4.6972  -4.6584  -4.6581  -4.4973  -4.4803  -4.4800  -4.4786
    -4.4726  -4.4166  -4.4166  -4.4052  -4.4040  -4.3677  -4.3559  -4.3543
    -4.3130  -4.3127  -4.2793  -4.2782  -4.2269  -4.2253  -4.2156  -4.2140
    -4.2089  -4.1956  -4.1956  -4.1542  -4.1365  -4.1357  -4.1295  -4.1289
    -4.0974  -4.0475  -4.0325  -4.0314  -4.0284  -4.0280  -4.0201  -4.0148
    -4.0142  -4.0140  -3.9500  -3.9486  -3.8997  -3.8989  -3.8869  -3.8607
    -3.8606  -3.8410  -3.8382  -3.8378  -3.8336  -3.8303  -3.7816  -3.7813
    -3.7687  -3.7676  -3.6675  -3.6637  -3.6575  -3.6572  -3.6246  -3.6140
    -3.6092  -3.5962  -3.5660  -3.5646  -3.5380  -3.5357  -3.5158  -3.5147
    -3.5025  -3.5008  -3.4472  -3.4463  -3.4277  -3.4133  -3.4011  -3.4000
    -3.3995  -3.3984  -3.3715  -3.3708  -3.3348  -3.3341  -3.3124  -3.3116
    -3.2795  -3.2789  -3.2607  -3.2333  -3.2331  -3.1962  -3.1954  -3.1602
    -3.1529  -3.1520  -3.1385  -3.1375  -3.1331  -3.1324  -3.0935  -3.0849
    -3.0433  -3.0433  -3.0354  -3.0258  -3.0255  -3.0232  -2.9995  -2.9993
    -2.9786  -2.9780  -2.9765  -2.9505  -2.9505  -2.9430  -2.9401  -2.9401
    -2.9045  -2.8993  -2.8649  -2.8637  -2.8634  -2.8605  -2.8603  -2.7813
    -2.7713  -2.7676  -2.7660  -2.7656  -2.7648  -2.7604  -2.7602  -2.7600
    -2.7588  -2.7501  -2.7423  -2.7254  -2.7227  -2.7225  -2.7208  -2.7072
    -2.7024  -2.6642  -2.6637  -2.6632  -2.6601  -2.6582  -2.6413  -2.6403
    -2.6319  -2.6318  -2.6295  -2.5702  -2.5699  -2.5646  -2.5645  -2.5594
    -2.5593  -2.5312  -2.4719  -2.4711  -2.4704  -2.4690  -2.4574  -2.4554
    -2.4502  -2.4395  -2.4389  -2.4033  -2.4012  -2.3942  -2.3930  -2.3921
    -2.3918  -2.3533  -2.3521  -2.3429  -2.3427  -2.3413  -2.3406  -2.2988
    -2.2826  -2.2779  -2.2244  -2.2236  -2.2055  -2.2042  -2.1987  -2.1984
    -2.1509  -2.1487  -2.1261  -2.1100  -2.0960  -2.0947  -2.0945  -2.0729
    -2.0723  -2.0629  -2.0461  -2.0053  -2.0038  -1.9921  -1.9920  -1.9904
    -1.9799  -1.9794  -1.9644  -1.9638  -1.9625  -1.9596  -1.9564  -1.9553
    -1.9525  -1.9425  -1.9414  -1.9244  -1.9237  -1.9218  -1.9158  -1.9130
    -1.9120  -1.8893  -1.8881  -1.8773  -1.8752  -1.8716  -1.8692  -1.8319
    -1.7991  -1.7970  -1.7626  -1.7458  -1.7450  -1.7350  -1.7340  -1.7116
    -1.7114  -1.6964  -1.6956  -1.6942  -1.6942  -1.6916  -1.6907  -1.6589
    -1.6583  -1.6576  -1.6126  -1.6119  -1.5741  -1.5715  -1.5580  -1.5250
    -1.5225  -1.5116  -1.4898  -1.4840  -1.4827  -1.4650  -1.4645  -1.4473
    -1.4451  -1.4422  -1.4413  -1.4403  -1.4383  -1.4372  -1.4364  -1.4163
    -1.4160  -1.4049  -1.3884  -1.3693  -1.3691  -1.3434  -1.3430  -1.3406
    -1.3392  -1.3359  -1.3325  -1.3125  -1.3109  -1.2981  -1.2944  -1.2829
    -1.2737  -1.2607  -1.2588  -1.2293  -1.2284  -1.2209  -1.2200  -1.1861
    -1.1837  -1.1772  -1.1757  -1.1683  -1.1672  -1.1466  -1.1456  -1.1341
    -1.1279  -1.1268  -1.1148  -1.1143  -1.1130  -1.1114  -1.0989  -1.0881
    -1.0877  -1.0806  -1.0800  -1.0680  -1.0643  -1.0624  -1.0567  -1.0178
    -1.0147  -1.0093  -1.0088  -1.0086  -1.0056  -0.9680  -0.9525  -0.9507
    -0.9503  -0.9496  -0.9461  -0.9447  -0.9408  -0.9268  -0.9262  -0.8898
    -0.8876  -0.8818  -0.8815  -0.8590  -0.8584  -0.8489  -0.8191  -0.8114
    -0.7846  -0.7833  -0.7561  -0.7557  -0.7528  -0.7520  -0.7512  -0.7475
    -0.7435  -0.7418  -0.7375  -0.7366  -0.7055  -0.7044  -0.6883  -0.6851
    -0.6818  -0.6809  -0.6804  -0.6770  -0.6608  -0.3828  -0.3764  -0.3222
    -0.3138  -0.2794  -0.1186  -0.0542  -0.0526  -0.0215   0.2647   0.2670
     0.5923   0.6001   0.6943   0.6951   0.7343   0.7378   0.8766   0.8826
     1.0037   1.0049   1.0919   1.6907   1.7090   1.7094   1.7489   1.7529
     1.7898   1.8061   1.8767   1.8825   2.0854   2.0875   2.3198   2.3975
     2.4060   2.4175   2.7909   2.8042   2.8711   2.8737   2.8783   2.8805
     3.0308   3.0313   3.0685   3.1694   3.1814   3.4021   3.4137   3.5408
     3.5664   3.5707   3.8362   3.8430   3.9511   3.9712   3.9723   4.0218
     4.0242   4.1567   4.1607   4.3948   4.3966   4.4817   4.4828   4.5670
     4.6072   4.6133   4.6250   4.6438   4.8237   5.3813   5.4071   5.4703
     5.5233   5.5457   5.5819   5.7171   5.7228   5.7301   5.7345   5.8313
     5.8342   5.8875   5.8900   5.9327   5.9866   6.0425   6.0598   6.1825
     6.1933   6.1984   6.2138   6.2249   6.2323   6.2380   6.2396   6.2420

     the Fermi energy is     0.9539 ev

!    total energy              =   -7425.29374224 Ry
     Harris-Foulkes estimate   =   -7425.29374223 Ry
     estimated scf accuracy    <          4.3E-09 Ry

     The total energy is the sum of the following terms:

     one-electron contribution =  -48567.59311046 Ry
     hartree contribution      =   24837.17223643 Ry
     xc contribution           =   -3604.20011224 Ry
     ewald contribution        =   19909.33013830 Ry
     smearing contrib. (-TS)   =      -0.00289427 Ry

     convergence has been achieved in  29 iterations

     Writing output data file 9367886.save

     init_run     :    129.78s CPU    135.38s WALL (       1 calls)
     electrons    :   7991.22s CPU   8372.31s WALL (       1 calls)

     Called by init_run:
     wfcinit      :     92.08s CPU     96.82s WALL (       1 calls)
     potinit      :      7.86s CPU      8.42s WALL (       1 calls)

     Called by electrons:
     c_bands      :   6016.73s CPU   6312.23s WALL (      30 calls)
     sum_band     :   1243.21s CPU   1311.02s WALL (      30 calls)
     v_of_rho     :    153.46s CPU    165.81s WALL (      30 calls)
     newd         :    593.34s CPU    598.45s WALL (      30 calls)
     mix_rho      :      4.36s CPU      4.84s WALL (      30 calls)
     vdW_energy   :      8.98s CPU      9.56s WALL (      30 calls)
     vdW_ffts     :     83.96s CPU     90.80s WALL (      60 calls)
     vdW_v        :     18.84s CPU     19.70s WALL (      30 calls)

     Called by c_bands:
     init_us_2    :     10.22s CPU     10.45s WALL (     366 calls)
     cegterg      :   5941.28s CPU   6234.23s WALL (     180 calls)

     Called by *egterg:
     h_psi        :   2743.72s CPU   3005.45s WALL (     880 calls)
     s_psi        :    375.71s CPU    377.72s WALL (     880 calls)
     g_psi        :      4.77s CPU      4.79s WALL (     694 calls)
     cdiaghg      :   1531.36s CPU   1536.26s WALL (     868 calls)

     Called by h_psi:
     add_vuspsi   :    379.93s CPU    381.92s WALL (     880 calls)

     General routines
     calbec       :    607.37s CPU    609.59s WALL (    1060 calls)
     fft          :    427.98s CPU    440.79s WALL (    1980 calls)
     ffts         :      2.16s CPU      2.39s WALL (      60 calls)
     fftw         :   2309.87s CPU   2610.60s WALL (  483098 calls)
     interpolate  :      6.00s CPU      6.67s WALL (      60 calls)
     davcio       :      0.00s CPU      0.20s WALL (       6 calls)

     Parallel routines
     fft_scatter  :   2126.68s CPU   2403.17s WALL (  485138 calls)

     PWSCF        :     2h15m CPU        2h22m WALL


   This run was terminated on:  18:17:21  29Aug2015            

=------------------------------------------------------------------------------=
   JOB DONE.
=------------------------------------------------------------------------------=
