Setting SGE environment for SCC

     Program PWSCF v.5.1.2 starts on 25Jun2015 at  6:14:41 

     This program is part of the open-source Quantum ESPRESSO suite
     for quantum simulation of materials; please cite
         "P. Giannozzi et al., J. Phys.:Condens. Matter 21 395502 (2009);
          URL http://www.quantum-espresso.org", 
     in publications or presentations arising from this work. More details at
     http://www.quantum-espresso.org/quote

     Parallel version (MPI), running on    32 processors
     R & G space division:  proc/nbgrp/npool/nimage =      32
     Reading input from top.O1.Au62.d.3.4.phi.45.psi.0.in
Warning: card &IONS ignored
Warning: card / ignored
Warning: card &CELL ignored
Warning: card / ignored

     Current dimensions of program PWSCF are:
     Max number of different atomic species (ntypx) = 10
     Max number of k-points (npk) =  40000
     Max angular momentum in pseudopotentials (lmaxx) =  3

     IMPORTANT: XC functional enforced from input :
     Exchange-correlation      = VDW-DF ( 1  4  4  0 1 0)
     Any further DFT definition will be discarded
     Please, verify this is what you really want


     Subspace diagonalization in iterative solution of the eigenvalue problem:
     a serial algorithm will be used


     Parallelization info
     --------------------
     sticks:   dense  smooth     PW     G-vecs:    dense   smooth      PW
     Min         578     289     74               118518    41891    5486
     Max         579     290     75               118533    41932    5497
     Sum       18505    9265   2385              3792731  1341081  175711


     Title: 
     top.O1.Au62.d.3.4.phi.45.psi.0                                             


     bravais-lattice index     =            8
     lattice parameter (alat)  =      24.1233  a.u.
     unit-cell volume          =   28076.2361 (a.u.)^3
     number of atoms/cell      =           75
     number of atomic types    =            3
     number of electrons       =       800.00
     number of Kohn-Sham states=          480
     kinetic-energy cutoff     =      50.0000  Ry
     charge density cutoff     =     400.0000  Ry
     convergence threshold     =      1.0E-08
     mixing beta               =       0.7000
     number of iterations used =            8  plain     mixing
     Exchange-correlation      = VDW-DF ( 1  4  4  0 1 0)

     celldm(1)=  24.123277  celldm(2)=   1.000000  celldm(3)=   2.000000
     celldm(4)=   0.000000  celldm(5)=   0.000000  celldm(6)=   0.000000

     crystal axes: (cart. coord. in units of alat)
               a(1) = (   1.000000   0.000000   0.000000 )  
               a(2) = (   0.000000   1.000000   0.000000 )  
               a(3) = (   0.000000   0.000000   2.000000 )  

     reciprocal axes: (cart. coord. in units 2 pi/alat)
               b(1) = (  1.000000  0.000000  0.000000 )  
               b(2) = (  0.000000  1.000000  0.000000 )  
               b(3) = (  0.000000  0.000000  0.500000 )  


     PseudoPot. # 1 for Au read from file:
     /home/scc/andrejb/qe/pseudo/Au.pbe-nd-van.UPF
     MD5 check sum: 458681b50f36d87ef23c61b04bba420a
     Pseudo is Ultrasoft + core correction, Zval = 11.0
     Generated by new atomic code, or converted to UPF format
     Using radial grid of  985 points,  3 beta functions with: 
                l(1) =   1
                l(2) =   2
                l(3) =   2
     Q(r) pseudized with  8 coefficients,  rinner =    1.100   1.100   1.100
                                                       1.100   1.100

     PseudoPot. # 2 for H  read from file:
     /home/scc/andrejb/qe/pseudo/H.pbe-van_ak.UPF
     MD5 check sum: 403db7282739603aa925980fa9b8608d
     Pseudo is Ultrasoft, Zval =  1.0
     Generated by new atomic code, or converted to UPF format
     Using radial grid of  615 points,  1 beta functions with: 
                l(1) =   0
     Q(r) pseudized with  8 coefficients,  rinner =    0.800

     PseudoPot. # 3 for O  read from file:
     /home/scc/andrejb/qe/pseudo/O.pbe-van_ak.UPF
     MD5 check sum: 4b8c549914a63cae506c6ff22b5af4fe
     Pseudo is Ultrasoft, Zval =  6.0
     Generated by new atomic code, or converted to UPF format
     Using radial grid of  737 points,  4 beta functions with: 
                l(1) =   0
                l(2) =   0
                l(3) =   1
                l(4) =   1
     Q(r) pseudized with  8 coefficients,  rinner =    0.800   0.800   0.800


     vdW kernel table read from file vdW_kernel_table
     MD5 check sum: 48e77a2e26edf626eeb0eaa751ad5cac

     atomic species   valence    mass     pseudopotential
        Au            11.00   196.96657     Au( 1.00)
        H              1.00     1.01000     H ( 1.00)
        O              6.00    16.00000     O ( 1.00)

     No symmetry found



   Cartesian axes

     site n.     atom                  positions (alat units)
         1           O   tau(   1) = (   0.4998324   0.3332216   0.7656616  )
         2           H   tau(   2) = (   0.4942419   0.2722342   0.8111555  )
         3           H   tau(   3) = (   0.5052408   0.3923724   0.8135193  )
         4           Au  tau(   4) = (   0.0000000   0.0000000   0.0000000  )
         5           Au  tau(   5) = (   0.3332217   0.0000000   0.0000000  )
         6           Au  tau(   6) = (   0.6664435   0.0000000   0.0000000  )
         7           Au  tau(   7) = (   0.1666109   0.1666109   0.0000000  )
         8           Au  tau(   8) = (   0.4998326   0.1666109   0.0000000  )
         9           Au  tau(   9) = (   0.8330542   0.1666109   0.0000000  )
        10           Au  tau(  10) = (   0.0000000   0.3332217   0.0000000  )
        11           Au  tau(  11) = (   0.3332217   0.3332217   0.0000000  )
        12           Au  tau(  12) = (   0.6664435   0.3332217   0.0000000  )
        13           Au  tau(  13) = (   0.1666109   0.4998326   0.0000000  )
        14           Au  tau(  14) = (   0.4998326   0.4998326   0.0000000  )
        15           Au  tau(  15) = (   0.8330542   0.4998326   0.0000000  )
        16           Au  tau(  16) = (   0.0000000   0.6664435   0.0000000  )
        17           Au  tau(  17) = (   0.3332217   0.6664435   0.0000000  )
        18           Au  tau(  18) = (   0.6664435   0.6664435   0.0000000  )
        19           Au  tau(  19) = (   0.1666109   0.8330542   0.0000000  )
        20           Au  tau(  20) = (   0.4998326   0.8330542   0.0000000  )
        21           Au  tau(  21) = (   0.8330542   0.8330542   0.0000000  )
        22           Au  tau(  22) = (   0.1666109   0.0000000   0.1666109  )
        23           Au  tau(  23) = (   0.4998326   0.0000000   0.1666109  )
        24           Au  tau(  24) = (   0.8330542   0.0000000   0.1666109  )
        25           Au  tau(  25) = (   0.0000000   0.1666109   0.1666109  )
        26           Au  tau(  26) = (   0.3332217   0.1666109   0.1666109  )
        27           Au  tau(  27) = (   0.6664435   0.1666109   0.1666109  )
        28           Au  tau(  28) = (   0.1666109   0.3332217   0.1666109  )
        29           Au  tau(  29) = (   0.4998326   0.3332217   0.1666109  )
        30           Au  tau(  30) = (   0.8330542   0.3332217   0.1666109  )
        31           Au  tau(  31) = (   0.0000000   0.4998326   0.1666109  )
        32           Au  tau(  32) = (   0.3332217   0.4998326   0.1666109  )
        33           Au  tau(  33) = (   0.6664435   0.4998326   0.1666109  )
        34           Au  tau(  34) = (   0.1666109   0.6664435   0.1666109  )
        35           Au  tau(  35) = (   0.4998326   0.6664435   0.1666109  )
        36           Au  tau(  36) = (   0.8330542   0.6664435   0.1666109  )
        37           Au  tau(  37) = (   0.0000000   0.8330542   0.1666109  )
        38           Au  tau(  38) = (   0.3332217   0.8330542   0.1666109  )
        39           Au  tau(  39) = (   0.6664435   0.8330542   0.1666109  )
        40           Au  tau(  40) = (  -0.0000182  -0.0000182   0.3335478  )
        41           Au  tau(  41) = (   0.3332215  -0.0000181   0.3335472  )
        42           Au  tau(  42) = (   0.6664447  -0.0000183   0.3335481  )
        43           Au  tau(  43) = (  -0.0000181   0.3332215   0.3335472  )
        44           Au  tau(  44) = (   0.3332215   0.3332215   0.3335468  )
        45           Au  tau(  45) = (   0.6664445   0.3332215   0.3335478  )
        46           Au  tau(  46) = (  -0.0000183   0.6664447   0.3335481  )
        47           Au  tau(  47) = (   0.3332215   0.6664445   0.3335478  )
        48           Au  tau(  48) = (   0.6664446   0.6664446   0.3335486  )
        49           Au  tau(  49) = (   0.1666097   0.1666097   0.3335483  )
        50           Au  tau(  50) = (   0.4998320   0.1666098   0.3335477  )
        51           Au  tau(  51) = (   0.8330732   0.1666096   0.3335481  )
        52           Au  tau(  52) = (   0.1666098   0.4998320   0.3335477  )
        53           Au  tau(  53) = (   0.4998321   0.4998321   0.3335470  )
        54           Au  tau(  54) = (   0.8330730   0.4998322   0.3335474  )
        55           Au  tau(  55) = (   0.1666096   0.8330732   0.3335481  )
        56           Au  tau(  56) = (   0.4998322   0.8330730   0.3335474  )
        57           Au  tau(  57) = (   0.8330731   0.8330731   0.3335478  )
        58           Au  tau(  58) = (   0.1666104  -0.0000111   0.4993095  )
        59           Au  tau(  59) = (   0.4998323  -0.0000112   0.4993099  )
        60           Au  tau(  60) = (   0.8330661  -0.0000111   0.4993009  )
        61           Au  tau(  61) = (  -0.0000111   0.1666104   0.4993095  )
        62           Au  tau(  62) = (   0.3332214   0.1666106   0.4993185  )
        63           Au  tau(  63) = (   0.6664437   0.1666106   0.4993187  )
        64           Au  tau(  64) = (   0.1666106   0.3332214   0.4993185  )
        65           Au  tau(  65) = (   0.4998324   0.3332216   0.4993185  )
        66           Au  tau(  66) = (   0.8330659   0.3332215   0.4993103  )
        67           Au  tau(  67) = (  -0.0000112   0.4998323   0.4993099  )
        68           Au  tau(  68) = (   0.3332216   0.4998324   0.4993185  )
        69           Au  tau(  69) = (   0.6664436   0.4998325   0.4993187  )
        70           Au  tau(  70) = (   0.1666106   0.6664437   0.4993187  )
        71           Au  tau(  71) = (   0.4998325   0.6664436   0.4993187  )
        72           Au  tau(  72) = (   0.8330658   0.6664438   0.4993102  )
        73           Au  tau(  73) = (  -0.0000111   0.8330661   0.4993009  )
        74           Au  tau(  74) = (   0.3332215   0.8330659   0.4993103  )
        75           Au  tau(  75) = (   0.6664438   0.8330658   0.4993102  )

     number of k points=     6  Marzari-Vanderbilt smearing, width (Ry)=  0.0200
                       cart. coord. in units 2pi/alat
        k(    1) = (   0.2500000   0.2500000   0.0833333), wk =   0.3333333
        k(    2) = (   0.2500000   0.2500000  -0.2500000), wk =   0.3333333
        k(    3) = (  -0.2500000  -0.2500000   0.0833333), wk =   0.3333333
        k(    4) = (  -0.2500000   0.2500000  -0.0833333), wk =   0.3333333
        k(    5) = (   0.2500000  -0.2500000  -0.0833333), wk =   0.3333333
        k(    6) = (  -0.2500000   0.2500000   0.2500000), wk =   0.3333333

     Dense  grid:  3792731 G-vectors     FFT dimensions: ( 160, 160, 320)

     Smooth grid:  1341081 G-vectors     FFT dimensions: ( 120, 120, 225)

     Largest allocated arrays     est. size (Mb)     dimensions
        Kohn-Sham Wavefunctions        38.58 Mb     (    5267,  480)
        NL pseudopotentials            76.03 Mb     (    5267,  946)
        Each V/rho on FFT grid          3.91 Mb     (  256000)
        Each G-vector array             0.90 Mb     (  118520)
        G-vector shells                 0.08 Mb     (   10286)
     Largest temporary arrays     est. size (Mb)     dimensions
        Auxiliary wavefunctions       154.31 Mb     (    5267, 1920)
        Each subspace H/S matrix       56.25 Mb     (    1920, 1920)
        Each <psi_i|beta_j> matrix      6.93 Mb     (     946,  480)
        Arrays for rho mixing          31.25 Mb     (  256000,    8)

     Initial potential from superposition of free atoms
     Check: negative starting charge=   -1.944981

     starting charge  799.16392, renormalised to  800.00000

     negative rho (up, down):  1.947E+00 0.000E+00


     ************************************************************************
     *
     * You are using vdW-DF for exchange-correlation in this calculation.
     * Please cite the following three references that made this development
     * possible:
     *
     *   M. Dion, H. Rydberg, E. Schroder, D. C. Langreth, and
     *   B. I. Lundqvist, Phys. Rev. Lett. 92, 246401 (2004).
     *
     *   T. Thonhauser, V. R. Cooper, S. Li, A. Puzder, P. Hyldgaard, and
     *   D. C. Langreth, Phys. Rev. B 76, 125112 (2007).
     *
     *   G. Roman-Perez and J. M. Soler, Phys. Rev. Lett. 103, 096102 (2009).
     *
     *
     * If you are using vdW-DF2, please also cite:
     *
     *   K. Lee, E. D. Murray, L. Kong, B. I. Lundqvist, and
     *   D. C. Langreth, Phys. Rev. B 82, 081101(R) (2010).
     *
     *
     * If you are calculating the stress with vdW-DF, please also cite:
     *
     *   R. Sabatini, E. Kucukbenli, B. Kolb, T. Thonhauser, and
     *   S. de Gironcoli, J. Phys.: Condens. Matter 24, 424209 (2012).
     *
     ************************************************************************

     Carrying out vdW-DF run using the following parameters:

     Nqs =      20    Nr_points =    1024   r_max =   100.000
     q_mesh =
               0.00001000     0.04494208     0.09755937     0.15916263
               0.23128650     0.31572767     0.41458969     0.53033537
               0.66584808     0.82450364     1.01025438     1.22772762
               1.48234092     1.78043706     2.12944203     2.53805004
               3.01644009     3.57652955     4.23227104     5.00000000

     Gradients computed in reciprocal space

     ************************************************************************


     Starting wfc are  654 randomized atomic wfcs

     total cpu time spent up to now is      157.0 secs

     Self-consistent Calculation

     iteration #  1     ecut=    50.00 Ry     beta=0.70
     Davidson diagonalization with overlap
     ethr =  1.00E-02,  avg # of iterations =  3.0

     Threshold (ethr) on eigenvalues was too large:
     Diagonalizing with lowered threshold

     Davidson diagonalization with overlap
     ethr =  4.29E-04,  avg # of iterations =  2.8

     negative rho (up, down):  1.947E+00 0.000E+00

     total cpu time spent up to now is      643.3 secs

     total energy              =   -7423.00437790 Ry
     Harris-Foulkes estimate   =   -7426.09290148 Ry
     estimated scf accuracy    <       3.81039947 Ry

     iteration #  2     ecut=    50.00 Ry     beta=0.70
     Davidson diagonalization with overlap
     ethr =  4.76E-04,  avg # of iterations = 11.3

     negative rho (up, down):  1.941E+00 0.000E+00

     total cpu time spent up to now is     1500.9 secs

     total energy              =   -7414.60090402 Ry
     Harris-Foulkes estimate   =   -7432.76983256 Ry
     estimated scf accuracy    <      96.05097549 Ry

     iteration #  3     ecut=    50.00 Ry     beta=0.70
     Davidson diagonalization with overlap
     ethr =  4.76E-04,  avg # of iterations =  6.0

     negative rho (up, down):  1.951E+00 0.000E+00

     total cpu time spent up to now is     2059.3 secs

     total energy              =   -7424.06786585 Ry
     Harris-Foulkes estimate   =   -7425.88560077 Ry
     estimated scf accuracy    <       7.76516556 Ry

     iteration #  4     ecut=    50.00 Ry     beta=0.70
     Davidson diagonalization with overlap
     ethr =  4.76E-04,  avg # of iterations =  5.2

     negative rho (up, down):  1.955E+00 0.000E+00

     total cpu time spent up to now is     2378.3 secs

     total energy              =   -7424.85963281 Ry
     Harris-Foulkes estimate   =   -7425.64011455 Ry
     estimated scf accuracy    <       4.03277258 Ry

     iteration #  5     ecut=    50.00 Ry     beta=0.70
     Davidson diagonalization with overlap
     ethr =  4.76E-04,  avg # of iterations =  5.3

     negative rho (up, down):  1.962E+00 0.000E+00

     total cpu time spent up to now is     2711.3 secs

     total energy              =   -7425.05482169 Ry
     Harris-Foulkes estimate   =   -7425.60378011 Ry
     estimated scf accuracy    <       4.36851757 Ry

     iteration #  6     ecut=    50.00 Ry     beta=0.70
     Davidson diagonalization with overlap
     ethr =  4.76E-04,  avg # of iterations =  2.0

     negative rho (up, down):  1.967E+00 0.000E+00

     total cpu time spent up to now is     2965.4 secs

     total energy              =   -7425.28637971 Ry
     Harris-Foulkes estimate   =   -7425.33076833 Ry
     estimated scf accuracy    <       0.14723640 Ry

     iteration #  7     ecut=    50.00 Ry     beta=0.70
     Davidson diagonalization with overlap
     ethr =  1.84E-05,  avg # of iterations =  7.8

     negative rho (up, down):  1.969E+00 0.000E+00

     total cpu time spent up to now is     3343.2 secs

     total energy              =   -7425.28652063 Ry
     Harris-Foulkes estimate   =   -7425.32387993 Ry
     estimated scf accuracy    <       0.17121034 Ry

     iteration #  8     ecut=    50.00 Ry     beta=0.70
     Davidson diagonalization with overlap
     ethr =  1.84E-05,  avg # of iterations =  3.2

     negative rho (up, down):  1.970E+00 0.000E+00

     total cpu time spent up to now is     3629.5 secs

     total energy              =   -7425.29094032 Ry
     Harris-Foulkes estimate   =   -7425.31022777 Ry
     estimated scf accuracy    <       0.08375661 Ry

     iteration #  9     ecut=    50.00 Ry     beta=0.70
     Davidson diagonalization with overlap
     ethr =  1.05E-05,  avg # of iterations =  8.7

     negative rho (up, down):  1.972E+00 0.000E+00

     total cpu time spent up to now is     3988.8 secs

     total energy              =   -7425.29223659 Ry
     Harris-Foulkes estimate   =   -7425.30422613 Ry
     estimated scf accuracy    <       0.04696224 Ry

     iteration # 10     ecut=    50.00 Ry     beta=0.70
     Davidson diagonalization with overlap
     ethr =  5.87E-06,  avg # of iterations =  6.0

     negative rho (up, down):  1.972E+00 0.000E+00

     total cpu time spent up to now is     4308.5 secs

     total energy              =   -7425.29458848 Ry
     Harris-Foulkes estimate   =   -7425.29777337 Ry
     estimated scf accuracy    <       0.00965719 Ry

     iteration # 11     ecut=    50.00 Ry     beta=0.70
     Davidson diagonalization with overlap
     ethr =  1.21E-06,  avg # of iterations =  7.5

     negative rho (up, down):  1.974E+00 0.000E+00

     total cpu time spent up to now is     4650.2 secs

     total energy              =   -7425.29497219 Ry
     Harris-Foulkes estimate   =   -7425.29620990 Ry
     estimated scf accuracy    <       0.00450642 Ry

     iteration # 12     ecut=    50.00 Ry     beta=0.70
     Davidson diagonalization with overlap
     ethr =  5.63E-07,  avg # of iterations =  4.0

     negative rho (up, down):  1.975E+00 0.000E+00

     total cpu time spent up to now is     4922.8 secs

     total energy              =   -7425.29427219 Ry
     Harris-Foulkes estimate   =   -7425.29542335 Ry
     estimated scf accuracy    <       0.00160315 Ry

     iteration # 13     ecut=    50.00 Ry     beta=0.70
     Davidson diagonalization with overlap
     ethr =  2.00E-07,  avg # of iterations = 11.3

     negative rho (up, down):  1.974E+00 0.000E+00

     total cpu time spent up to now is     5519.1 secs

     total energy              =   -7425.29362065 Ry
     Harris-Foulkes estimate   =   -7425.29593716 Ry
     estimated scf accuracy    <       0.01002717 Ry

     iteration # 14     ecut=    50.00 Ry     beta=0.70
     Davidson diagonalization with overlap
     ethr =  2.00E-07,  avg # of iterations =  3.0

     negative rho (up, down):  1.974E+00 0.000E+00

     total cpu time spent up to now is     5879.8 secs

     total energy              =   -7425.29457406 Ry
     Harris-Foulkes estimate   =   -7425.29495698 Ry
     estimated scf accuracy    <       0.00173604 Ry

     iteration # 15     ecut=    50.00 Ry     beta=0.70
     Davidson diagonalization with overlap
     ethr =  2.00E-07,  avg # of iterations =  2.0

     negative rho (up, down):  1.974E+00 0.000E+00

     total cpu time spent up to now is     6130.6 secs

     total energy              =   -7425.29467470 Ry
     Harris-Foulkes estimate   =   -7425.29486949 Ry
     estimated scf accuracy    <       0.00096927 Ry

     iteration # 16     ecut=    50.00 Ry     beta=0.70
     Davidson diagonalization with overlap
     ethr =  1.21E-07,  avg # of iterations =  1.0

     negative rho (up, down):  1.974E+00 0.000E+00

     total cpu time spent up to now is     6379.2 secs

     total energy              =   -7425.29472246 Ry
     Harris-Foulkes estimate   =   -7425.29488283 Ry
     estimated scf accuracy    <       0.00133064 Ry

     iteration # 17     ecut=    50.00 Ry     beta=0.70
     Davidson diagonalization with overlap
     ethr =  1.21E-07,  avg # of iterations =  1.0

     negative rho (up, down):  1.974E+00 0.000E+00

     total cpu time spent up to now is     6613.9 secs

     total energy              =   -7425.29479541 Ry
     Harris-Foulkes estimate   =   -7425.29481368 Ry
     estimated scf accuracy    <       0.00005160 Ry

     iteration # 18     ecut=    50.00 Ry     beta=0.70
     Davidson diagonalization with overlap
     ethr =  6.45E-09,  avg # of iterations =  2.0

     negative rho (up, down):  1.974E+00 0.000E+00

     total cpu time spent up to now is     6888.1 secs

     total energy              =   -7425.29480300 Ry
     Harris-Foulkes estimate   =   -7425.29480847 Ry
     estimated scf accuracy    <       0.00002040 Ry

     iteration # 19     ecut=    50.00 Ry     beta=0.70
     Davidson diagonalization with overlap
     ethr =  2.55E-09,  avg # of iterations =  3.0

     negative rho (up, down):  1.974E+00 0.000E+00

     total cpu time spent up to now is     7146.2 secs

     total energy              =   -7425.29480392 Ry
     Harris-Foulkes estimate   =   -7425.29480867 Ry
     estimated scf accuracy    <       0.00002403 Ry

     iteration # 20     ecut=    50.00 Ry     beta=0.70
     Davidson diagonalization with overlap
     ethr =  2.55E-09,  avg # of iterations =  2.0

     negative rho (up, down):  1.974E+00 0.000E+00

     total cpu time spent up to now is     7386.2 secs

     total energy              =   -7425.29480595 Ry
     Harris-Foulkes estimate   =   -7425.29480735 Ry
     estimated scf accuracy    <       0.00000553 Ry

     iteration # 21     ecut=    50.00 Ry     beta=0.70
     Davidson diagonalization with overlap
     ethr =  6.91E-10,  avg # of iterations =  2.0

     negative rho (up, down):  1.974E+00 0.000E+00

     total cpu time spent up to now is     7639.1 secs

     total energy              =   -7425.29480678 Ry
     Harris-Foulkes estimate   =   -7425.29480705 Ry
     estimated scf accuracy    <       0.00000166 Ry

     iteration # 22     ecut=    50.00 Ry     beta=0.70
     Davidson diagonalization with overlap
     ethr =  2.07E-10,  avg # of iterations =  3.0

     negative rho (up, down):  1.974E+00 0.000E+00

     total cpu time spent up to now is     7917.9 secs

     total energy              =   -7425.29480704 Ry
     Harris-Foulkes estimate   =   -7425.29480716 Ry
     estimated scf accuracy    <       0.00000058 Ry

     iteration # 23     ecut=    50.00 Ry     beta=0.70
     Davidson diagonalization with overlap
     ethr =  7.28E-11,  avg # of iterations =  3.0

     negative rho (up, down):  1.974E+00 0.000E+00

     total cpu time spent up to now is     8203.8 secs

     total energy              =   -7425.29480712 Ry
     Harris-Foulkes estimate   =   -7425.29480716 Ry
     estimated scf accuracy    <       0.00000016 Ry

     iteration # 24     ecut=    50.00 Ry     beta=0.70
     Davidson diagonalization with overlap
     ethr =  2.02E-11,  avg # of iterations =  2.0

     negative rho (up, down):  1.974E+00 0.000E+00

     total cpu time spent up to now is     8468.0 secs

     total energy              =   -7425.29480717 Ry
     Harris-Foulkes estimate   =   -7425.29480717 Ry
     estimated scf accuracy    <       0.00000020 Ry

     iteration # 25     ecut=    50.00 Ry     beta=0.70
     Davidson diagonalization with overlap
     ethr =  2.02E-11,  avg # of iterations =  2.0

     negative rho (up, down):  1.974E+00 0.000E+00

     total cpu time spent up to now is     8731.1 secs

     total energy              =   -7425.29480720 Ry
     Harris-Foulkes estimate   =   -7425.29480720 Ry
     estimated scf accuracy    <       0.00000012 Ry

     iteration # 26     ecut=    50.00 Ry     beta=0.70
     Davidson diagonalization with overlap
     ethr =  1.51E-11,  avg # of iterations =  1.7

     negative rho (up, down):  1.974E+00 0.000E+00

     total cpu time spent up to now is     8973.2 secs

     total energy              =   -7425.29480721 Ry
     Harris-Foulkes estimate   =   -7425.29480722 Ry
     estimated scf accuracy    <       0.00000019 Ry

     iteration # 27     ecut=    50.00 Ry     beta=0.70
     Davidson diagonalization with overlap
     ethr =  1.51E-11,  avg # of iterations =  1.0

     negative rho (up, down):  1.974E+00 0.000E+00

     total cpu time spent up to now is     9227.8 secs

     total energy              =   -7425.29480723 Ry
     Harris-Foulkes estimate   =   -7425.29480723 Ry
     estimated scf accuracy    <       0.00000002 Ry

     iteration # 28     ecut=    50.00 Ry     beta=0.70
     Davidson diagonalization with overlap
     ethr =  2.83E-12,  avg # of iterations =  3.0

     negative rho (up, down):  1.974E+00 0.000E+00

     total cpu time spent up to now is     9504.2 secs

     total energy              =   -7425.29480724 Ry
     Harris-Foulkes estimate   =   -7425.29480724 Ry
     estimated scf accuracy    <       0.00000001 Ry

     iteration # 29     ecut=    50.00 Ry     beta=0.70
     Davidson diagonalization with overlap
     ethr =  1.57E-12,  avg # of iterations =  2.0

     negative rho (up, down):  1.974E+00 0.000E+00

     total cpu time spent up to now is     9774.5 secs

     End of self-consistent calculation

          k = 0.2500 0.2500 0.0833 (167653 PWs)   bands (ev):

   -19.6126  -7.4216  -6.7289  -6.2009  -6.1996  -5.7707  -5.3622  -5.2690
    -5.2677  -5.0724  -5.0723  -4.9555  -4.9543  -4.8759  -4.8533  -4.7800
    -4.6949  -4.6914  -4.6525  -4.6525  -4.4916  -4.4745  -4.4741  -4.4729
    -4.4668  -4.4109  -4.4108  -4.3994  -4.3984  -4.3618  -4.3500  -4.3491
    -4.3071  -4.3071  -4.2735  -4.2723  -4.2210  -4.2198  -4.2102  -4.2082
    -4.2031  -4.1899  -4.1898  -4.1487  -4.1307  -4.1300  -4.1237  -4.1231
    -4.0920  -4.0422  -4.0266  -4.0256  -4.0237  -4.0225  -4.0146  -4.0089
    -4.0085  -4.0083  -3.9441  -3.9440  -3.8946  -3.8939  -3.8815  -3.8554
    -3.8549  -3.8375  -3.8326  -3.8320  -3.8278  -3.8246  -3.7770  -3.7756
    -3.7628  -3.7619  -3.7264  -3.6578  -3.6539  -3.6516  -3.6463  -3.6128
    -3.6037  -3.5908  -3.5603  -3.5591  -3.5321  -3.5300  -3.5100  -3.5090
    -3.4966  -3.4953  -3.4413  -3.4405  -3.4220  -3.4074  -3.3954  -3.3943
    -3.3937  -3.3926  -3.3657  -3.3652  -3.3291  -3.3281  -3.3066  -3.3060
    -3.2737  -3.2733  -3.2550  -3.2275  -3.2274  -3.1904  -3.1897  -3.1544
    -3.1470  -3.1462  -3.1327  -3.1318  -3.1273  -3.1266  -3.0880  -3.0790
    -3.0376  -3.0375  -3.0296  -3.0203  -3.0193  -3.0172  -2.9938  -2.9936
    -2.9727  -2.9722  -2.9709  -2.9448  -2.9447  -2.9372  -2.9344  -2.9342
    -2.8987  -2.8937  -2.8591  -2.8579  -2.8577  -2.8547  -2.8546  -2.7755
    -2.7655  -2.7617  -2.7603  -2.7598  -2.7591  -2.7545  -2.7543  -2.7543
    -2.7531  -2.7443  -2.7365  -2.7197  -2.7169  -2.7167  -2.7147  -2.7015
    -2.6967  -2.6585  -2.6577  -2.6576  -2.6542  -2.6525  -2.6355  -2.6346
    -2.6261  -2.6261  -2.6237  -2.5645  -2.5642  -2.5588  -2.5587  -2.5539
    -2.5533  -2.5254  -2.4661  -2.4653  -2.4647  -2.4632  -2.4516  -2.4498
    -2.4443  -2.4338  -2.4333  -2.3974  -2.3957  -2.3883  -2.3872  -2.3866
    -2.3861  -2.3475  -2.3464  -2.3372  -2.3369  -2.3356  -2.3350  -2.2930
    -2.2765  -2.2723  -2.2186  -2.2179  -2.1999  -2.1986  -2.1931  -2.1925
    -2.1450  -2.1432  -2.1204  -2.1044  -2.0902  -2.0891  -2.0888  -2.0672
    -2.0667  -2.0572  -2.0402  -1.9997  -1.9983  -1.9863  -1.9862  -1.9853
    -1.9742  -1.9740  -1.9588  -1.9583  -1.9566  -1.9538  -1.9505  -1.9494
    -1.9472  -1.9367  -1.9358  -1.9187  -1.9181  -1.9162  -1.9102  -1.9071
    -1.9064  -1.8835  -1.8825  -1.8715  -1.8696  -1.8659  -1.8633  -1.8260
    -1.7932  -1.7913  -1.7568  -1.7402  -1.7394  -1.7309  -1.7289  -1.7082
    -1.7055  -1.6939  -1.6906  -1.6893  -1.6883  -1.6869  -1.6856  -1.6532
    -1.6525  -1.6519  -1.6222  -1.6067  -1.6043  -1.5665  -1.5651  -1.5192
    -1.5182  -1.5062  -1.4841  -1.4783  -1.4769  -1.4595  -1.4582  -1.4414
    -1.4399  -1.4364  -1.4358  -1.4344  -1.4330  -1.4318  -1.4297  -1.4107
    -1.4099  -1.3988  -1.3827  -1.3635  -1.3632  -1.3376  -1.3373  -1.3347
    -1.3337  -1.3308  -1.3266  -1.3063  -1.3052  -1.2919  -1.2885  -1.2769
    -1.2680  -1.2547  -1.2530  -1.2235  -1.2227  -1.2151  -1.2141  -1.1801
    -1.1783  -1.1713  -1.1699  -1.1625  -1.1612  -1.1407  -1.1399  -1.1284
    -1.1220  -1.1212  -1.1090  -1.1085  -1.1073  -1.1054  -1.0931  -1.0825
    -1.0818  -1.0747  -1.0743  -1.0623  -1.0581  -1.0563  -1.0510  -1.0119
    -1.0093  -1.0034  -1.0029  -1.0024  -0.9999  -0.9623  -0.9465  -0.9450
    -0.9448  -0.9438  -0.9400  -0.9385  -0.9350  -0.9207  -0.9204  -0.8840
    -0.8817  -0.8761  -0.8757  -0.8532  -0.8527  -0.8431  -0.8134  -0.8057
    -0.7787  -0.7777  -0.7503  -0.7500  -0.7469  -0.7461  -0.7454  -0.7417
    -0.7375  -0.7360  -0.7317  -0.7311  -0.6996  -0.6988  -0.6823  -0.6794
    -0.6759  -0.6755  -0.6744  -0.6704  -0.6551  -0.3773  -0.3705  -0.3159
    -0.3074  -0.2735  -0.1131  -0.0484  -0.0470  -0.0152   0.2706   0.2728
     0.5984   0.6061   0.7001   0.7007   0.7402   0.7433   0.8828   0.8886
     1.0094   1.0107   1.0979   1.6962   1.7147   1.7152   1.7547   1.7587
     1.7965   1.8110   1.8827   1.8885   2.0912   2.0931   2.3256   2.4036
     2.4119   2.4232   2.7974   2.8096   2.8769   2.8793   2.8842   2.8862
     3.0364   3.0371   3.0724   3.1759   3.1854   3.4079   3.4190   3.5465
     3.5724   3.5766   3.8422   3.8483   3.9565   3.9771   3.9775   4.0140
     4.0311   4.1626   4.1659   4.4006   4.4021   4.4823   4.4881   4.5884
     4.6136   4.6178   4.6326   4.6488   4.8166   5.3937   5.4164   5.4505
     5.5364   5.5488   5.5975   5.6719   5.7232   5.7283   5.7446   5.8372
     5.8386   5.8933   5.8950   5.9369   5.9836   6.0248   6.1043   6.1544
     6.1778   6.2029   6.2126   6.2205   6.2315   6.2377   6.2446   6.2461

          k = 0.2500 0.2500-0.2500 (167588 PWs)   bands (ev):

   -19.6126  -7.4216  -6.7289  -6.2009  -6.1996  -5.7707  -5.3622  -5.2690
    -5.2677  -5.0724  -5.0723  -4.9555  -4.9543  -4.8759  -4.8533  -4.7800
    -4.6949  -4.6914  -4.6525  -4.6525  -4.4916  -4.4746  -4.4741  -4.4729
    -4.4668  -4.4109  -4.4109  -4.3994  -4.3984  -4.3618  -4.3500  -4.3491
    -4.3071  -4.3071  -4.2735  -4.2724  -4.2210  -4.2198  -4.2102  -4.2082
    -4.2031  -4.1899  -4.1898  -4.1487  -4.1307  -4.1300  -4.1237  -4.1231
    -4.0920  -4.0422  -4.0266  -4.0256  -4.0237  -4.0225  -4.0146  -4.0090
    -4.0085  -4.0083  -3.9441  -3.9440  -3.8946  -3.8939  -3.8815  -3.8554
    -3.8549  -3.8375  -3.8326  -3.8320  -3.8278  -3.8246  -3.7770  -3.7756
    -3.7628  -3.7619  -3.7264  -3.6578  -3.6539  -3.6516  -3.6463  -3.6128
    -3.6037  -3.5908  -3.5603  -3.5591  -3.5321  -3.5300  -3.5100  -3.5090
    -3.4966  -3.4952  -3.4413  -3.4405  -3.4220  -3.4075  -3.3954  -3.3943
    -3.3937  -3.3926  -3.3657  -3.3652  -3.3291  -3.3281  -3.3066  -3.3060
    -3.2737  -3.2733  -3.2550  -3.2275  -3.2274  -3.1904  -3.1897  -3.1544
    -3.1470  -3.1462  -3.1327  -3.1318  -3.1273  -3.1266  -3.0880  -3.0790
    -3.0376  -3.0375  -3.0296  -3.0203  -3.0193  -3.0172  -2.9938  -2.9936
    -2.9727  -2.9722  -2.9709  -2.9448  -2.9447  -2.9372  -2.9344  -2.9342
    -2.8987  -2.8937  -2.8591  -2.8579  -2.8577  -2.8547  -2.8546  -2.7755
    -2.7655  -2.7617  -2.7603  -2.7598  -2.7591  -2.7545  -2.7543  -2.7543
    -2.7531  -2.7443  -2.7365  -2.7197  -2.7169  -2.7167  -2.7147  -2.7014
    -2.6967  -2.6585  -2.6577  -2.6576  -2.6542  -2.6525  -2.6355  -2.6346
    -2.6261  -2.6260  -2.6237  -2.5645  -2.5642  -2.5588  -2.5587  -2.5539
    -2.5533  -2.5254  -2.4661  -2.4653  -2.4647  -2.4632  -2.4516  -2.4498
    -2.4443  -2.4338  -2.4333  -2.3974  -2.3957  -2.3883  -2.3872  -2.3866
    -2.3861  -2.3475  -2.3465  -2.3372  -2.3369  -2.3356  -2.3350  -2.2930
    -2.2765  -2.2723  -2.2186  -2.2179  -2.1999  -2.1986  -2.1931  -2.1925
    -2.1450  -2.1432  -2.1204  -2.1044  -2.0902  -2.0891  -2.0888  -2.0672
    -2.0667  -2.0572  -2.0402  -1.9997  -1.9983  -1.9863  -1.9862  -1.9853
    -1.9742  -1.9740  -1.9588  -1.9583  -1.9566  -1.9538  -1.9505  -1.9494
    -1.9472  -1.9367  -1.9358  -1.9187  -1.9181  -1.9162  -1.9103  -1.9071
    -1.9064  -1.8835  -1.8826  -1.8715  -1.8696  -1.8659  -1.8633  -1.8260
    -1.7932  -1.7913  -1.7569  -1.7402  -1.7394  -1.7309  -1.7289  -1.7082
    -1.7055  -1.6939  -1.6905  -1.6893  -1.6883  -1.6869  -1.6856  -1.6532
    -1.6526  -1.6519  -1.6222  -1.6067  -1.6043  -1.5665  -1.5651  -1.5192
    -1.5182  -1.5062  -1.4841  -1.4783  -1.4769  -1.4595  -1.4582  -1.4414
    -1.4399  -1.4364  -1.4358  -1.4344  -1.4330  -1.4318  -1.4297  -1.4107
    -1.4099  -1.3988  -1.3827  -1.3635  -1.3632  -1.3376  -1.3373  -1.3347
    -1.3337  -1.3308  -1.3266  -1.3063  -1.3052  -1.2919  -1.2885  -1.2769
    -1.2680  -1.2547  -1.2530  -1.2235  -1.2227  -1.2151  -1.2141  -1.1800
    -1.1783  -1.1713  -1.1699  -1.1625  -1.1612  -1.1407  -1.1399  -1.1284
    -1.1220  -1.1212  -1.1090  -1.1085  -1.1073  -1.1054  -1.0931  -1.0825
    -1.0819  -1.0747  -1.0743  -1.0623  -1.0581  -1.0563  -1.0510  -1.0119
    -1.0093  -1.0034  -1.0029  -1.0024  -0.9999  -0.9623  -0.9465  -0.9450
    -0.9448  -0.9438  -0.9400  -0.9385  -0.9350  -0.9207  -0.9204  -0.8840
    -0.8817  -0.8761  -0.8757  -0.8532  -0.8527  -0.8431  -0.8134  -0.8057
    -0.7787  -0.7777  -0.7503  -0.7500  -0.7469  -0.7461  -0.7454  -0.7417
    -0.7375  -0.7360  -0.7317  -0.7311  -0.6996  -0.6988  -0.6823  -0.6794
    -0.6759  -0.6755  -0.6744  -0.6704  -0.6550  -0.3773  -0.3705  -0.3159
    -0.3074  -0.2735  -0.1131  -0.0484  -0.0470  -0.0152   0.2706   0.2728
     0.5984   0.6061   0.7001   0.7007   0.7402   0.7433   0.8829   0.8887
     1.0094   1.0107   1.0979   1.6962   1.7147   1.7152   1.7547   1.7587
     1.7965   1.8110   1.8827   1.8885   2.0912   2.0931   2.3256   2.4036
     2.4119   2.4232   2.7974   2.8096   2.8769   2.8793   2.8842   2.8862
     3.0364   3.0371   3.0725   3.1759   3.1854   3.4079   3.4190   3.5465
     3.5724   3.5766   3.8422   3.8483   3.9565   3.9771   3.9775   4.0142
     4.0312   4.1626   4.1659   4.4006   4.4021   4.4822   4.4881   4.5872
     4.6136   4.6178   4.6325   4.6487   4.8157   5.3928   5.4092   5.4310
     5.5365   5.5483   5.6198   5.7204   5.7236   5.7294   5.7400   5.8371
     5.8387   5.8932   5.8950   5.9370   5.9895   6.0444   6.0793   6.1803
     6.1931   6.2060   6.2181   6.2227   6.2312   6.2387   6.2421   6.2447

          k =-0.2500-0.2500 0.0833 (167653 PWs)   bands (ev):

   -19.6126  -7.4216  -6.7289  -6.2009  -6.1996  -5.7707  -5.3622  -5.2690
    -5.2677  -5.0724  -5.0723  -4.9555  -4.9543  -4.8759  -4.8533  -4.7800
    -4.6949  -4.6914  -4.6525  -4.6525  -4.4916  -4.4745  -4.4741  -4.4729
    -4.4668  -4.4109  -4.4108  -4.3994  -4.3984  -4.3618  -4.3500  -4.3491
    -4.3071  -4.3071  -4.2735  -4.2723  -4.2210  -4.2198  -4.2102  -4.2082
    -4.2031  -4.1899  -4.1898  -4.1487  -4.1307  -4.1300  -4.1237  -4.1231
    -4.0920  -4.0422  -4.0266  -4.0256  -4.0237  -4.0225  -4.0146  -4.0089
    -4.0085  -4.0083  -3.9441  -3.9440  -3.8946  -3.8939  -3.8815  -3.8554
    -3.8549  -3.8375  -3.8326  -3.8320  -3.8278  -3.8246  -3.7770  -3.7756
    -3.7628  -3.7619  -3.7264  -3.6578  -3.6539  -3.6516  -3.6463  -3.6128
    -3.6037  -3.5908  -3.5603  -3.5591  -3.5321  -3.5300  -3.5100  -3.5090
    -3.4966  -3.4953  -3.4413  -3.4405  -3.4220  -3.4074  -3.3954  -3.3943
    -3.3937  -3.3926  -3.3657  -3.3652  -3.3291  -3.3281  -3.3066  -3.3060
    -3.2737  -3.2733  -3.2550  -3.2275  -3.2274  -3.1904  -3.1897  -3.1544
    -3.1470  -3.1462  -3.1327  -3.1318  -3.1273  -3.1266  -3.0880  -3.0790
    -3.0376  -3.0375  -3.0296  -3.0203  -3.0193  -3.0172  -2.9938  -2.9936
    -2.9727  -2.9722  -2.9709  -2.9448  -2.9447  -2.9372  -2.9344  -2.9342
    -2.8987  -2.8937  -2.8591  -2.8579  -2.8577  -2.8547  -2.8546  -2.7755
    -2.7655  -2.7617  -2.7603  -2.7598  -2.7591  -2.7545  -2.7543  -2.7543
    -2.7531  -2.7443  -2.7365  -2.7197  -2.7169  -2.7167  -2.7147  -2.7015
    -2.6967  -2.6585  -2.6577  -2.6576  -2.6542  -2.6525  -2.6355  -2.6346
    -2.6261  -2.6261  -2.6237  -2.5645  -2.5642  -2.5588  -2.5587  -2.5539
    -2.5533  -2.5254  -2.4661  -2.4653  -2.4647  -2.4632  -2.4516  -2.4498
    -2.4443  -2.4338  -2.4333  -2.3974  -2.3957  -2.3883  -2.3872  -2.3866
    -2.3861  -2.3475  -2.3464  -2.3372  -2.3369  -2.3356  -2.3350  -2.2930
    -2.2765  -2.2723  -2.2186  -2.2179  -2.1999  -2.1986  -2.1931  -2.1925
    -2.1450  -2.1432  -2.1204  -2.1044  -2.0902  -2.0891  -2.0888  -2.0672
    -2.0667  -2.0572  -2.0402  -1.9997  -1.9983  -1.9863  -1.9862  -1.9853
    -1.9742  -1.9740  -1.9588  -1.9583  -1.9566  -1.9538  -1.9505  -1.9494
    -1.9472  -1.9367  -1.9358  -1.9187  -1.9181  -1.9162  -1.9102  -1.9071
    -1.9064  -1.8835  -1.8825  -1.8715  -1.8696  -1.8659  -1.8633  -1.8260
    -1.7932  -1.7913  -1.7568  -1.7402  -1.7394  -1.7309  -1.7289  -1.7082
    -1.7055  -1.6939  -1.6906  -1.6893  -1.6883  -1.6869  -1.6856  -1.6532
    -1.6525  -1.6519  -1.6222  -1.6067  -1.6043  -1.5665  -1.5651  -1.5192
    -1.5182  -1.5062  -1.4841  -1.4783  -1.4769  -1.4595  -1.4582  -1.4414
    -1.4399  -1.4364  -1.4358  -1.4344  -1.4330  -1.4318  -1.4297  -1.4107
    -1.4099  -1.3988  -1.3827  -1.3635  -1.3632  -1.3376  -1.3373  -1.3347
    -1.3337  -1.3308  -1.3266  -1.3063  -1.3052  -1.2919  -1.2885  -1.2769
    -1.2680  -1.2547  -1.2530  -1.2235  -1.2227  -1.2151  -1.2141  -1.1801
    -1.1783  -1.1713  -1.1699  -1.1625  -1.1612  -1.1407  -1.1399  -1.1284
    -1.1220  -1.1212  -1.1090  -1.1085  -1.1073  -1.1054  -1.0931  -1.0825
    -1.0818  -1.0747  -1.0743  -1.0623  -1.0581  -1.0563  -1.0510  -1.0119
    -1.0093  -1.0034  -1.0029  -1.0024  -0.9999  -0.9623  -0.9465  -0.9450
    -0.9448  -0.9438  -0.9400  -0.9385  -0.9350  -0.9207  -0.9204  -0.8840
    -0.8817  -0.8761  -0.8757  -0.8532  -0.8527  -0.8431  -0.8134  -0.8057
    -0.7787  -0.7777  -0.7503  -0.7500  -0.7469  -0.7461  -0.7454  -0.7417
    -0.7375  -0.7360  -0.7317  -0.7311  -0.6996  -0.6988  -0.6823  -0.6794
    -0.6759  -0.6755  -0.6744  -0.6704  -0.6551  -0.3773  -0.3705  -0.3159
    -0.3074  -0.2735  -0.1131  -0.0484  -0.0470  -0.0152   0.2706   0.2728
     0.5984   0.6061   0.7001   0.7007   0.7402   0.7433   0.8828   0.8886
     1.0094   1.0107   1.0979   1.6962   1.7147   1.7152   1.7547   1.7587
     1.7965   1.8110   1.8827   1.8885   2.0912   2.0931   2.3256   2.4036
     2.4119   2.4232   2.7974   2.8096   2.8769   2.8793   2.8842   2.8862
     3.0364   3.0371   3.0724   3.1759   3.1854   3.4079   3.4190   3.5465
     3.5724   3.5766   3.8422   3.8483   3.9565   3.9771   3.9775   4.0140
     4.0311   4.1626   4.1659   4.4006   4.4021   4.4823   4.4881   4.5885
     4.6136   4.6178   4.6326   4.6488   4.8166   5.3937   5.4165   5.4500
     5.5364   5.5488   5.5986   5.6714   5.7232   5.7283   5.7446   5.8372
     5.8386   5.8933   5.8950   5.9369   5.9837   6.0242   6.1022   6.1556
     6.1777   6.2029   6.2134   6.2206   6.2315   6.2377   6.2446   6.2463

          k =-0.2500 0.2500-0.0833 (167653 PWs)   bands (ev):

   -19.6126  -7.4216  -6.7289  -6.2010  -6.1995  -5.7707  -5.3622  -5.2691
    -5.2677  -5.0724  -5.0723  -4.9556  -4.9542  -4.8759  -4.8533  -4.7800
    -4.6949  -4.6914  -4.6525  -4.6525  -4.4916  -4.4745  -4.4741  -4.4728
    -4.4668  -4.4109  -4.4109  -4.3994  -4.3983  -4.3618  -4.3501  -4.3490
    -4.3071  -4.3071  -4.2735  -4.2723  -4.2211  -4.2197  -4.2102  -4.2082
    -4.2031  -4.1899  -4.1898  -4.1487  -4.1307  -4.1299  -4.1237  -4.1230
    -4.0920  -4.0423  -4.0267  -4.0256  -4.0236  -4.0226  -4.0146  -4.0089
    -4.0084  -4.0084  -3.9442  -3.9439  -3.8946  -3.8939  -3.8815  -3.8554
    -3.8549  -3.8376  -3.8324  -3.8323  -3.8278  -3.8246  -3.7770  -3.7756
    -3.7629  -3.7619  -3.7264  -3.6579  -3.6538  -3.6517  -3.6463  -3.6128
    -3.6037  -3.5908  -3.5603  -3.5591  -3.5321  -3.5300  -3.5100  -3.5090
    -3.4967  -3.4952  -3.4414  -3.4405  -3.4220  -3.4074  -3.3954  -3.3942
    -3.3937  -3.3926  -3.3657  -3.3651  -3.3291  -3.3281  -3.3066  -3.3060
    -3.2737  -3.2733  -3.2550  -3.2275  -3.2274  -3.1904  -3.1897  -3.1544
    -3.1470  -3.1462  -3.1327  -3.1317  -3.1273  -3.1266  -3.0880  -3.0790
    -3.0376  -3.0375  -3.0296  -3.0200  -3.0197  -3.0172  -2.9938  -2.9936
    -2.9728  -2.9723  -2.9708  -2.9448  -2.9447  -2.9372  -2.9344  -2.9342
    -2.8987  -2.8937  -2.8591  -2.8579  -2.8577  -2.8547  -2.8546  -2.7755
    -2.7655  -2.7618  -2.7602  -2.7598  -2.7591  -2.7546  -2.7544  -2.7543
    -2.7530  -2.7443  -2.7365  -2.7197  -2.7169  -2.7168  -2.7147  -2.7014
    -2.6967  -2.6584  -2.6580  -2.6575  -2.6543  -2.6524  -2.6355  -2.6345
    -2.6261  -2.6260  -2.6237  -2.5645  -2.5642  -2.5589  -2.5587  -2.5539
    -2.5533  -2.5254  -2.4661  -2.4654  -2.4646  -2.4632  -2.4516  -2.4497
    -2.4443  -2.4338  -2.4333  -2.3975  -2.3956  -2.3884  -2.3873  -2.3865
    -2.3860  -2.3475  -2.3464  -2.3372  -2.3369  -2.3356  -2.3350  -2.2930
    -2.2765  -2.2724  -2.2187  -2.2179  -2.1999  -2.1985  -2.1931  -2.1925
    -2.1451  -2.1432  -2.1204  -2.1045  -2.0903  -2.0891  -2.0888  -2.0672
    -2.0666  -2.0572  -2.0402  -1.9997  -1.9983  -1.9863  -1.9862  -1.9853
    -1.9742  -1.9739  -1.9588  -1.9582  -1.9567  -1.9538  -1.9506  -1.9494
    -1.9470  -1.9368  -1.9358  -1.9187  -1.9181  -1.9162  -1.9102  -1.9072
    -1.9063  -1.8836  -1.8825  -1.8715  -1.8696  -1.8659  -1.8632  -1.8260
    -1.7933  -1.7912  -1.7568  -1.7402  -1.7395  -1.7304  -1.7289  -1.7087
    -1.7056  -1.6923  -1.6906  -1.6892  -1.6884  -1.6867  -1.6856  -1.6532
    -1.6525  -1.6519  -1.6240  -1.6068  -1.6040  -1.5664  -1.5652  -1.5192
    -1.5180  -1.5062  -1.4841  -1.4783  -1.4769  -1.4595  -1.4583  -1.4415
    -1.4397  -1.4365  -1.4357  -1.4345  -1.4328  -1.4316  -1.4300  -1.4107
    -1.4100  -1.3988  -1.3827  -1.3635  -1.3633  -1.3376  -1.3373  -1.3348
    -1.3336  -1.3306  -1.3265  -1.3065  -1.3051  -1.2921  -1.2883  -1.2768
    -1.2680  -1.2548  -1.2529  -1.2235  -1.2227  -1.2151  -1.2141  -1.1802
    -1.1781  -1.1714  -1.1699  -1.1625  -1.1612  -1.1408  -1.1399  -1.1285
    -1.1220  -1.1211  -1.1091  -1.1085  -1.1073  -1.1053  -1.0931  -1.0824
    -1.0819  -1.0748  -1.0743  -1.0623  -1.0582  -1.0562  -1.0510  -1.0120
    -1.0092  -1.0035  -1.0029  -1.0025  -0.9999  -0.9623  -0.9467  -0.9450
    -0.9447  -0.9437  -0.9402  -0.9385  -0.9350  -0.9207  -0.9204  -0.8841
    -0.8816  -0.8761  -0.8756  -0.8533  -0.8526  -0.8431  -0.8134  -0.8057
    -0.7788  -0.7776  -0.7504  -0.7500  -0.7469  -0.7461  -0.7454  -0.7417
    -0.7375  -0.7360  -0.7317  -0.7310  -0.6997  -0.6987  -0.6825  -0.6793
    -0.6760  -0.6754  -0.6745  -0.6702  -0.6551  -0.3773  -0.3705  -0.3163
    -0.3071  -0.2735  -0.1130  -0.0484  -0.0469  -0.0152   0.2705   0.2730
     0.5981   0.6064   0.7000   0.7008   0.7401   0.7435   0.8825   0.8889
     1.0094   1.0107   1.0979   1.6963   1.7147   1.7152   1.7545   1.7587
     1.7957   1.8117   1.8825   1.8888   2.0911   2.0933   2.3255   2.4032
     2.4122   2.4233   2.7967   2.8100   2.8768   2.8794   2.8841   2.8863
     3.0364   3.0371   3.0721   3.1753   3.1865   3.4079   3.4195   3.5465
     3.5721   3.5767   3.8419   3.8487   3.9568   3.9770   3.9778   4.0162
     4.0291   4.1624   4.1661   4.4006   4.4022   4.4839   4.4878   4.5810
     4.6133   4.6178   4.6317   4.6499   4.8221   5.3896   5.4188   5.4590
     5.5344   5.5501   5.5970   5.6611   5.7229   5.7288   5.7448   5.8369
     5.8389   5.8931   5.8952   5.9373   5.9849   6.0175   6.1122   6.1528
     6.1766   6.2041   6.2168   6.2219   6.2312   6.2380   6.2445   6.2453

          k = 0.2500-0.2500-0.0833 (167653 PWs)   bands (ev):

   -19.6126  -7.4216  -6.7289  -6.2010  -6.1995  -5.7707  -5.3622  -5.2691
    -5.2677  -5.0724  -5.0723  -4.9556  -4.9542  -4.8759  -4.8533  -4.7800
    -4.6949  -4.6914  -4.6525  -4.6525  -4.4916  -4.4745  -4.4741  -4.4728
    -4.4668  -4.4109  -4.4109  -4.3994  -4.3983  -4.3618  -4.3501  -4.3490
    -4.3071  -4.3071  -4.2735  -4.2723  -4.2211  -4.2197  -4.2102  -4.2082
    -4.2031  -4.1899  -4.1898  -4.1487  -4.1307  -4.1299  -4.1237  -4.1230
    -4.0920  -4.0423  -4.0267  -4.0256  -4.0236  -4.0226  -4.0146  -4.0089
    -4.0084  -4.0084  -3.9442  -3.9439  -3.8946  -3.8939  -3.8815  -3.8554
    -3.8549  -3.8376  -3.8324  -3.8323  -3.8278  -3.8246  -3.7770  -3.7756
    -3.7629  -3.7619  -3.7264  -3.6579  -3.6538  -3.6517  -3.6463  -3.6128
    -3.6037  -3.5908  -3.5603  -3.5591  -3.5321  -3.5300  -3.5100  -3.5090
    -3.4967  -3.4952  -3.4414  -3.4405  -3.4220  -3.4074  -3.3954  -3.3942
    -3.3937  -3.3926  -3.3657  -3.3651  -3.3291  -3.3281  -3.3066  -3.3060
    -3.2737  -3.2733  -3.2550  -3.2275  -3.2274  -3.1904  -3.1897  -3.1544
    -3.1470  -3.1462  -3.1327  -3.1317  -3.1273  -3.1266  -3.0880  -3.0790
    -3.0376  -3.0375  -3.0296  -3.0200  -3.0197  -3.0172  -2.9938  -2.9936
    -2.9728  -2.9723  -2.9708  -2.9448  -2.9447  -2.9372  -2.9344  -2.9342
    -2.8987  -2.8937  -2.8591  -2.8579  -2.8577  -2.8547  -2.8546  -2.7755
    -2.7655  -2.7618  -2.7602  -2.7598  -2.7591  -2.7546  -2.7544  -2.7543
    -2.7530  -2.7443  -2.7365  -2.7197  -2.7169  -2.7168  -2.7147  -2.7014
    -2.6967  -2.6584  -2.6580  -2.6575  -2.6543  -2.6524  -2.6355  -2.6345
    -2.6261  -2.6260  -2.6237  -2.5645  -2.5642  -2.5589  -2.5587  -2.5539
    -2.5533  -2.5254  -2.4661  -2.4654  -2.4646  -2.4632  -2.4516  -2.4497
    -2.4443  -2.4338  -2.4333  -2.3975  -2.3956  -2.3884  -2.3873  -2.3865
    -2.3860  -2.3475  -2.3464  -2.3372  -2.3369  -2.3356  -2.3350  -2.2930
    -2.2765  -2.2724  -2.2187  -2.2179  -2.1999  -2.1985  -2.1931  -2.1925
    -2.1451  -2.1432  -2.1204  -2.1045  -2.0903  -2.0891  -2.0888  -2.0672
    -2.0666  -2.0572  -2.0402  -1.9997  -1.9983  -1.9863  -1.9862  -1.9853
    -1.9742  -1.9739  -1.9588  -1.9582  -1.9567  -1.9538  -1.9506  -1.9494
    -1.9470  -1.9368  -1.9358  -1.9187  -1.9181  -1.9162  -1.9102  -1.9072
    -1.9063  -1.8836  -1.8825  -1.8715  -1.8696  -1.8659  -1.8632  -1.8260
    -1.7933  -1.7912  -1.7568  -1.7402  -1.7395  -1.7304  -1.7289  -1.7087
    -1.7056  -1.6923  -1.6906  -1.6892  -1.6884  -1.6867  -1.6856  -1.6532
    -1.6525  -1.6519  -1.6240  -1.6068  -1.6040  -1.5664  -1.5652  -1.5192
    -1.5180  -1.5062  -1.4841  -1.4783  -1.4769  -1.4595  -1.4583  -1.4415
    -1.4397  -1.4365  -1.4357  -1.4345  -1.4328  -1.4316  -1.4300  -1.4107
    -1.4100  -1.3988  -1.3827  -1.3635  -1.3633  -1.3376  -1.3373  -1.3348
    -1.3336  -1.3306  -1.3265  -1.3065  -1.3051  -1.2921  -1.2883  -1.2768
    -1.2680  -1.2548  -1.2529  -1.2235  -1.2227  -1.2151  -1.2141  -1.1802
    -1.1781  -1.1714  -1.1699  -1.1625  -1.1612  -1.1408  -1.1399  -1.1285
    -1.1220  -1.1211  -1.1091  -1.1085  -1.1073  -1.1053  -1.0931  -1.0824
    -1.0819  -1.0748  -1.0743  -1.0623  -1.0582  -1.0562  -1.0510  -1.0120
    -1.0092  -1.0035  -1.0029  -1.0025  -0.9999  -0.9623  -0.9467  -0.9450
    -0.9447  -0.9437  -0.9402  -0.9385  -0.9350  -0.9207  -0.9204  -0.8841
    -0.8816  -0.8761  -0.8756  -0.8533  -0.8526  -0.8431  -0.8134  -0.8057
    -0.7788  -0.7776  -0.7504  -0.7500  -0.7469  -0.7461  -0.7454  -0.7417
    -0.7375  -0.7360  -0.7317  -0.7310  -0.6997  -0.6987  -0.6825  -0.6793
    -0.6760  -0.6754  -0.6745  -0.6702  -0.6551  -0.3773  -0.3705  -0.3163
    -0.3071  -0.2735  -0.1130  -0.0484  -0.0469  -0.0152   0.2705   0.2730
     0.5981   0.6064   0.7000   0.7008   0.7401   0.7435   0.8825   0.8889
     1.0094   1.0107   1.0979   1.6963   1.7147   1.7152   1.7545   1.7587
     1.7957   1.8117   1.8825   1.8888   2.0911   2.0933   2.3255   2.4032
     2.4122   2.4233   2.7967   2.8100   2.8768   2.8794   2.8841   2.8863
     3.0364   3.0371   3.0721   3.1753   3.1865   3.4079   3.4195   3.5465
     3.5721   3.5767   3.8419   3.8487   3.9568   3.9770   3.9778   4.0162
     4.0291   4.1624   4.1661   4.4006   4.4022   4.4839   4.4878   4.5810
     4.6133   4.6178   4.6317   4.6499   4.8222   5.3896   5.4187   5.4594
     5.5343   5.5501   5.5959   5.6616   5.7229   5.7288   5.7448   5.8369
     5.8389   5.8931   5.8952   5.9373   5.9849   6.0179   6.1143   6.1513
     6.1768   6.2043   6.2161   6.2218   6.2312   6.2380   6.2446   6.2455

          k =-0.2500 0.2500 0.2500 (167588 PWs)   bands (ev):

   -19.6126  -7.4216  -6.7289  -6.2010  -6.1995  -5.7707  -5.3622  -5.2691
    -5.2677  -5.0724  -5.0723  -4.9556  -4.9542  -4.8759  -4.8533  -4.7800
    -4.6949  -4.6914  -4.6525  -4.6525  -4.4916  -4.4746  -4.4741  -4.4728
    -4.4668  -4.4109  -4.4109  -4.3994  -4.3983  -4.3618  -4.3501  -4.3490
    -4.3071  -4.3071  -4.2735  -4.2723  -4.2211  -4.2197  -4.2102  -4.2082
    -4.2031  -4.1899  -4.1898  -4.1487  -4.1307  -4.1299  -4.1237  -4.1230
    -4.0920  -4.0423  -4.0267  -4.0256  -4.0236  -4.0226  -4.0146  -4.0090
    -4.0084  -4.0084  -3.9442  -3.9439  -3.8946  -3.8939  -3.8815  -3.8554
    -3.8549  -3.8375  -3.8324  -3.8323  -3.8278  -3.8246  -3.7770  -3.7756
    -3.7629  -3.7619  -3.7264  -3.6579  -3.6538  -3.6517  -3.6463  -3.6128
    -3.6037  -3.5908  -3.5603  -3.5591  -3.5321  -3.5300  -3.5100  -3.5090
    -3.4967  -3.4952  -3.4414  -3.4405  -3.4220  -3.4075  -3.3954  -3.3942
    -3.3937  -3.3926  -3.3657  -3.3651  -3.3291  -3.3281  -3.3066  -3.3060
    -3.2737  -3.2733  -3.2550  -3.2275  -3.2274  -3.1904  -3.1897  -3.1544
    -3.1470  -3.1462  -3.1327  -3.1317  -3.1273  -3.1265  -3.0880  -3.0790
    -3.0376  -3.0375  -3.0296  -3.0200  -3.0197  -3.0172  -2.9938  -2.9936
    -2.9728  -2.9723  -2.9708  -2.9448  -2.9447  -2.9372  -2.9344  -2.9342
    -2.8987  -2.8937  -2.8591  -2.8579  -2.8577  -2.8547  -2.8546  -2.7755
    -2.7655  -2.7618  -2.7602  -2.7598  -2.7591  -2.7546  -2.7544  -2.7543
    -2.7530  -2.7443  -2.7365  -2.7197  -2.7169  -2.7168  -2.7147  -2.7014
    -2.6967  -2.6584  -2.6580  -2.6575  -2.6543  -2.6524  -2.6355  -2.6345
    -2.6261  -2.6260  -2.6237  -2.5645  -2.5642  -2.5589  -2.5587  -2.5539
    -2.5533  -2.5255  -2.4661  -2.4654  -2.4646  -2.4632  -2.4516  -2.4497
    -2.4443  -2.4338  -2.4333  -2.3975  -2.3956  -2.3884  -2.3873  -2.3865
    -2.3860  -2.3475  -2.3464  -2.3372  -2.3369  -2.3356  -2.3350  -2.2930
    -2.2765  -2.2724  -2.2186  -2.2179  -2.1999  -2.1986  -2.1931  -2.1925
    -2.1451  -2.1431  -2.1204  -2.1045  -2.0903  -2.0891  -2.0888  -2.0672
    -2.0666  -2.0572  -2.0402  -1.9997  -1.9983  -1.9863  -1.9862  -1.9853
    -1.9742  -1.9739  -1.9588  -1.9582  -1.9567  -1.9539  -1.9506  -1.9494
    -1.9470  -1.9368  -1.9358  -1.9187  -1.9181  -1.9162  -1.9102  -1.9072
    -1.9063  -1.8836  -1.8825  -1.8715  -1.8696  -1.8659  -1.8632  -1.8260
    -1.7933  -1.7912  -1.7568  -1.7402  -1.7395  -1.7304  -1.7289  -1.7087
    -1.7056  -1.6923  -1.6906  -1.6892  -1.6884  -1.6867  -1.6856  -1.6532
    -1.6525  -1.6519  -1.6240  -1.6068  -1.6040  -1.5664  -1.5652  -1.5192
    -1.5180  -1.5062  -1.4841  -1.4783  -1.4769  -1.4595  -1.4583  -1.4415
    -1.4397  -1.4365  -1.4357  -1.4345  -1.4328  -1.4316  -1.4300  -1.4107
    -1.4100  -1.3988  -1.3827  -1.3635  -1.3633  -1.3376  -1.3373  -1.3348
    -1.3336  -1.3306  -1.3265  -1.3065  -1.3051  -1.2921  -1.2883  -1.2768
    -1.2680  -1.2548  -1.2529  -1.2235  -1.2227  -1.2151  -1.2140  -1.1802
    -1.1781  -1.1714  -1.1699  -1.1625  -1.1612  -1.1408  -1.1399  -1.1285
    -1.1220  -1.1211  -1.1091  -1.1085  -1.1073  -1.1053  -1.0932  -1.0825
    -1.0819  -1.0748  -1.0743  -1.0623  -1.0582  -1.0562  -1.0510  -1.0120
    -1.0092  -1.0035  -1.0029  -1.0025  -0.9999  -0.9623  -0.9467  -0.9450
    -0.9447  -0.9437  -0.9402  -0.9385  -0.9350  -0.9207  -0.9204  -0.8841
    -0.8816  -0.8761  -0.8756  -0.8533  -0.8526  -0.8431  -0.8134  -0.8057
    -0.7788  -0.7776  -0.7504  -0.7500  -0.7469  -0.7461  -0.7454  -0.7417
    -0.7375  -0.7360  -0.7317  -0.7310  -0.6997  -0.6987  -0.6825  -0.6793
    -0.6760  -0.6754  -0.6745  -0.6702  -0.6551  -0.3773  -0.3705  -0.3163
    -0.3071  -0.2735  -0.1130  -0.0484  -0.0469  -0.0152   0.2705   0.2730
     0.5981   0.6064   0.7000   0.7008   0.7401   0.7435   0.8825   0.8889
     1.0094   1.0107   1.0979   1.6963   1.7147   1.7152   1.7545   1.7587
     1.7957   1.8117   1.8825   1.8889   2.0911   2.0933   2.3255   2.4032
     2.4122   2.4233   2.7967   2.8100   2.8768   2.8794   2.8841   2.8863
     3.0364   3.0371   3.0721   3.1753   3.1865   3.4079   3.4195   3.5465
     3.5721   3.5767   3.8419   3.8487   3.9568   3.9770   3.9778   4.0164
     4.0292   4.1624   4.1661   4.4006   4.4022   4.4838   4.4878   4.5797
     4.6133   4.6178   4.6317   4.6499   4.8212   5.3889   5.4094   5.4422
     5.5343   5.5496   5.6062   5.7224   5.7254   5.7305   5.7397   5.8367
     5.8391   5.8931   5.8953   5.9373   5.9894   6.0458   6.0714   6.1839
     6.1958   6.2055   6.2175   6.2256   6.2311   6.2401   6.2420   6.2449

     the Fermi energy is     0.9598 ev

!    total energy              =   -7425.29480725 Ry
     Harris-Foulkes estimate   =   -7425.29480724 Ry
     estimated scf accuracy    <          3.2E-09 Ry

     The total energy is the sum of the following terms:

     one-electron contribution =  -48616.00766203 Ry
     hartree contribution      =   24861.52655554 Ry
     xc contribution           =   -3604.20280928 Ry
     ewald contribution        =   19933.39198474 Ry
     smearing contrib. (-TS)   =      -0.00287622 Ry

     convergence has been achieved in  29 iterations

     Writing output data file 3451068.save

     init_run     :    148.30s CPU    155.82s WALL (       1 calls)
     electrons    :   9174.99s CPU   9618.49s WALL (       1 calls)

     Called by init_run:
     wfcinit      :    116.24s CPU    122.80s WALL (       1 calls)
     potinit      :      6.30s CPU      6.77s WALL (       1 calls)

     Called by electrons:
     c_bands      :   7536.19s CPU   7887.17s WALL (      30 calls)
     sum_band     :   1082.26s CPU   1157.40s WALL (      30 calls)
     v_of_rho     :    117.09s CPU    127.46s WALL (      30 calls)
     newd         :    450.37s CPU    455.39s WALL (      30 calls)
     mix_rho      :      3.82s CPU      4.28s WALL (      30 calls)
     vdW_energy   :     10.91s CPU     11.49s WALL (      30 calls)
     vdW_ffts     :     58.42s CPU     63.74s WALL (      60 calls)
     vdW_v        :     14.39s CPU     15.27s WALL (      30 calls)

     Called by c_bands:
     init_us_2    :      9.30s CPU      9.64s WALL (     366 calls)
     cegterg      :   7323.06s CPU   7672.25s WALL (     180 calls)

     Called by *egterg:
     h_psi        :   2839.02s CPU   3155.15s WALL (     893 calls)
     s_psi        :    375.85s CPU    377.83s WALL (     893 calls)
     g_psi        :      4.89s CPU      4.86s WALL (     707 calls)
     cdiaghg      :   1771.72s CPU   1777.13s WALL (     881 calls)

     Called by h_psi:
     add_vuspsi   :    376.70s CPU    378.71s WALL (     893 calls)

     General routines
     calbec       :    954.22s CPU    957.27s WALL (    1073 calls)
     fft          :    250.04s CPU    260.56s WALL (    1980 calls)
     ffts         :      1.78s CPU      2.03s WALL (      60 calls)
     fftw         :   2027.44s CPU   2392.92s WALL (  483022 calls)
     interpolate  :      4.29s CPU      5.00s WALL (      60 calls)
     davcio       :      0.00s CPU      0.11s WALL (       6 calls)

     Parallel routines
     fft_scatter  :   1661.26s CPU   1959.64s WALL (  485062 calls)

     PWSCF        :     2h35m CPU        2h43m WALL


   This run was terminated on:   8:57:58  25Jun2015            

=------------------------------------------------------------------------------=
   JOB DONE.
=------------------------------------------------------------------------------=
