Setting SGE environment for SCC

     Program PWSCF v.5.1.2 starts on 29Jun2015 at 18:49:54 

     This program is part of the open-source Quantum ESPRESSO suite
     for quantum simulation of materials; please cite
         "P. Giannozzi et al., J. Phys.:Condens. Matter 21 395502 (2009);
          URL http://www.quantum-espresso.org", 
     in publications or presentations arising from this work. More details at
     http://www.quantum-espresso.org/quote

     Parallel version (MPI), running on    32 processors
     R & G space division:  proc/nbgrp/npool/nimage =      32
     Reading input from top.H2.Au62.d.2.1.phi.0.psi.0.in
Warning: card &IONS ignored
Warning: card / ignored
Warning: card &CELL ignored
Warning: card / ignored

     Current dimensions of program PWSCF are:
     Max number of different atomic species (ntypx) = 10
     Max number of k-points (npk) =  40000
     Max angular momentum in pseudopotentials (lmaxx) =  3

     IMPORTANT: XC functional enforced from input :
     Exchange-correlation      = VDW-DF ( 1  4  4  0 1 0)
     Any further DFT definition will be discarded
     Please, verify this is what you really want


     Subspace diagonalization in iterative solution of the eigenvalue problem:
     a serial algorithm will be used


     Parallelization info
     --------------------
     sticks:   dense  smooth     PW     G-vecs:    dense   smooth      PW
     Min         578     289     74               118518    41891    5486
     Max         579     290     75               118533    41932    5497
     Sum       18505    9265   2385              3792731  1341081  175711


     Title: 
     top.H2.Au62.d.2.1.phi.0.psi.0                                              


     bravais-lattice index     =            8
     lattice parameter (alat)  =      24.1233  a.u.
     unit-cell volume          =   28076.2361 (a.u.)^3
     number of atoms/cell      =           75
     number of atomic types    =            3
     number of electrons       =       800.00
     number of Kohn-Sham states=          480
     kinetic-energy cutoff     =      50.0000  Ry
     charge density cutoff     =     400.0000  Ry
     convergence threshold     =      1.0E-08
     mixing beta               =       0.7000
     number of iterations used =            8  plain     mixing
     Exchange-correlation      = VDW-DF ( 1  4  4  0 1 0)

     celldm(1)=  24.123277  celldm(2)=   1.000000  celldm(3)=   2.000000
     celldm(4)=   0.000000  celldm(5)=   0.000000  celldm(6)=   0.000000

     crystal axes: (cart. coord. in units of alat)
               a(1) = (   1.000000   0.000000   0.000000 )  
               a(2) = (   0.000000   1.000000   0.000000 )  
               a(3) = (   0.000000   0.000000   2.000000 )  

     reciprocal axes: (cart. coord. in units 2 pi/alat)
               b(1) = (  1.000000  0.000000  0.000000 )  
               b(2) = (  0.000000  1.000000  0.000000 )  
               b(3) = (  0.000000  0.000000  0.500000 )  


     PseudoPot. # 1 for Au read from file:
     /home/scc/andrejb/qe/pseudo/Au.pbe-nd-van.UPF
     MD5 check sum: 458681b50f36d87ef23c61b04bba420a
     Pseudo is Ultrasoft + core correction, Zval = 11.0
     Generated by new atomic code, or converted to UPF format
     Using radial grid of  985 points,  3 beta functions with: 
                l(1) =   1
                l(2) =   2
                l(3) =   2
     Q(r) pseudized with  8 coefficients,  rinner =    1.100   1.100   1.100
                                                       1.100   1.100

     PseudoPot. # 2 for H  read from file:
     /home/scc/andrejb/qe/pseudo/H.pbe-van_ak.UPF
     MD5 check sum: 403db7282739603aa925980fa9b8608d
     Pseudo is Ultrasoft, Zval =  1.0
     Generated by new atomic code, or converted to UPF format
     Using radial grid of  615 points,  1 beta functions with: 
                l(1) =   0
     Q(r) pseudized with  8 coefficients,  rinner =    0.800

     PseudoPot. # 3 for O  read from file:
     /home/scc/andrejb/qe/pseudo/O.pbe-van_ak.UPF
     MD5 check sum: 4b8c549914a63cae506c6ff22b5af4fe
     Pseudo is Ultrasoft, Zval =  6.0
     Generated by new atomic code, or converted to UPF format
     Using radial grid of  737 points,  4 beta functions with: 
                l(1) =   0
                l(2) =   0
                l(3) =   1
                l(4) =   1
     Q(r) pseudized with  8 coefficients,  rinner =    0.800   0.800   0.800


     vdW kernel table read from file vdW_kernel_table
     MD5 check sum: 48e77a2e26edf626eeb0eaa751ad5cac

     atomic species   valence    mass     pseudopotential
        Au            11.00   196.96657     Au( 1.00)
        H              1.00     1.01000     H ( 1.00)
        O              6.00    16.00000     O ( 1.00)

     No symmetry found



   Cartesian axes

     site n.     atom                  positions (alat units)
         1           O   tau(   1) = (   0.5172279   0.3477086   0.7366801  )
         2           H   tau(   2) = (   0.4998324   0.3332216   0.6638246  )
         3           H   tau(   3) = (   0.4674011   0.3062305   0.7768708  )
         4           Au  tau(   4) = (   0.0000000   0.0000000   0.0000000  )
         5           Au  tau(   5) = (   0.3332217   0.0000000   0.0000000  )
         6           Au  tau(   6) = (   0.6664435   0.0000000   0.0000000  )
         7           Au  tau(   7) = (   0.1666109   0.1666109   0.0000000  )
         8           Au  tau(   8) = (   0.4998326   0.1666109   0.0000000  )
         9           Au  tau(   9) = (   0.8330542   0.1666109   0.0000000  )
        10           Au  tau(  10) = (   0.0000000   0.3332217   0.0000000  )
        11           Au  tau(  11) = (   0.3332217   0.3332217   0.0000000  )
        12           Au  tau(  12) = (   0.6664435   0.3332217   0.0000000  )
        13           Au  tau(  13) = (   0.1666109   0.4998326   0.0000000  )
        14           Au  tau(  14) = (   0.4998326   0.4998326   0.0000000  )
        15           Au  tau(  15) = (   0.8330542   0.4998326   0.0000000  )
        16           Au  tau(  16) = (   0.0000000   0.6664435   0.0000000  )
        17           Au  tau(  17) = (   0.3332217   0.6664435   0.0000000  )
        18           Au  tau(  18) = (   0.6664435   0.6664435   0.0000000  )
        19           Au  tau(  19) = (   0.1666109   0.8330542   0.0000000  )
        20           Au  tau(  20) = (   0.4998326   0.8330542   0.0000000  )
        21           Au  tau(  21) = (   0.8330542   0.8330542   0.0000000  )
        22           Au  tau(  22) = (   0.1666109   0.0000000   0.1666109  )
        23           Au  tau(  23) = (   0.4998326   0.0000000   0.1666109  )
        24           Au  tau(  24) = (   0.8330542   0.0000000   0.1666109  )
        25           Au  tau(  25) = (   0.0000000   0.1666109   0.1666109  )
        26           Au  tau(  26) = (   0.3332217   0.1666109   0.1666109  )
        27           Au  tau(  27) = (   0.6664435   0.1666109   0.1666109  )
        28           Au  tau(  28) = (   0.1666109   0.3332217   0.1666109  )
        29           Au  tau(  29) = (   0.4998326   0.3332217   0.1666109  )
        30           Au  tau(  30) = (   0.8330542   0.3332217   0.1666109  )
        31           Au  tau(  31) = (   0.0000000   0.4998326   0.1666109  )
        32           Au  tau(  32) = (   0.3332217   0.4998326   0.1666109  )
        33           Au  tau(  33) = (   0.6664435   0.4998326   0.1666109  )
        34           Au  tau(  34) = (   0.1666109   0.6664435   0.1666109  )
        35           Au  tau(  35) = (   0.4998326   0.6664435   0.1666109  )
        36           Au  tau(  36) = (   0.8330542   0.6664435   0.1666109  )
        37           Au  tau(  37) = (   0.0000000   0.8330542   0.1666109  )
        38           Au  tau(  38) = (   0.3332217   0.8330542   0.1666109  )
        39           Au  tau(  39) = (   0.6664435   0.8330542   0.1666109  )
        40           Au  tau(  40) = (  -0.0000182  -0.0000182   0.3335478  )
        41           Au  tau(  41) = (   0.3332215  -0.0000181   0.3335472  )
        42           Au  tau(  42) = (   0.6664447  -0.0000183   0.3335481  )
        43           Au  tau(  43) = (  -0.0000181   0.3332215   0.3335472  )
        44           Au  tau(  44) = (   0.3332215   0.3332215   0.3335468  )
        45           Au  tau(  45) = (   0.6664445   0.3332215   0.3335478  )
        46           Au  tau(  46) = (  -0.0000183   0.6664447   0.3335481  )
        47           Au  tau(  47) = (   0.3332215   0.6664445   0.3335478  )
        48           Au  tau(  48) = (   0.6664446   0.6664446   0.3335486  )
        49           Au  tau(  49) = (   0.1666097   0.1666097   0.3335483  )
        50           Au  tau(  50) = (   0.4998320   0.1666098   0.3335477  )
        51           Au  tau(  51) = (   0.8330732   0.1666096   0.3335481  )
        52           Au  tau(  52) = (   0.1666098   0.4998320   0.3335477  )
        53           Au  tau(  53) = (   0.4998321   0.4998321   0.3335470  )
        54           Au  tau(  54) = (   0.8330730   0.4998322   0.3335474  )
        55           Au  tau(  55) = (   0.1666096   0.8330732   0.3335481  )
        56           Au  tau(  56) = (   0.4998322   0.8330730   0.3335474  )
        57           Au  tau(  57) = (   0.8330731   0.8330731   0.3335478  )
        58           Au  tau(  58) = (   0.1666104  -0.0000111   0.4993095  )
        59           Au  tau(  59) = (   0.4998323  -0.0000112   0.4993099  )
        60           Au  tau(  60) = (   0.8330661  -0.0000111   0.4993009  )
        61           Au  tau(  61) = (  -0.0000111   0.1666104   0.4993095  )
        62           Au  tau(  62) = (   0.3332214   0.1666106   0.4993185  )
        63           Au  tau(  63) = (   0.6664437   0.1666106   0.4993187  )
        64           Au  tau(  64) = (   0.1666106   0.3332214   0.4993185  )
        65           Au  tau(  65) = (   0.4998324   0.3332216   0.4993185  )
        66           Au  tau(  66) = (   0.8330659   0.3332215   0.4993103  )
        67           Au  tau(  67) = (  -0.0000112   0.4998323   0.4993099  )
        68           Au  tau(  68) = (   0.3332216   0.4998324   0.4993185  )
        69           Au  tau(  69) = (   0.6664436   0.4998325   0.4993187  )
        70           Au  tau(  70) = (   0.1666106   0.6664437   0.4993187  )
        71           Au  tau(  71) = (   0.4998325   0.6664436   0.4993187  )
        72           Au  tau(  72) = (   0.8330658   0.6664438   0.4993102  )
        73           Au  tau(  73) = (  -0.0000111   0.8330661   0.4993009  )
        74           Au  tau(  74) = (   0.3332215   0.8330659   0.4993103  )
        75           Au  tau(  75) = (   0.6664438   0.8330658   0.4993102  )

     number of k points=     6  Marzari-Vanderbilt smearing, width (Ry)=  0.0200
                       cart. coord. in units 2pi/alat
        k(    1) = (   0.2500000   0.2500000   0.0833333), wk =   0.3333333
        k(    2) = (   0.2500000   0.2500000  -0.2500000), wk =   0.3333333
        k(    3) = (  -0.2500000  -0.2500000   0.0833333), wk =   0.3333333
        k(    4) = (  -0.2500000   0.2500000  -0.0833333), wk =   0.3333333
        k(    5) = (   0.2500000  -0.2500000  -0.0833333), wk =   0.3333333
        k(    6) = (  -0.2500000   0.2500000   0.2500000), wk =   0.3333333

     Dense  grid:  3792731 G-vectors     FFT dimensions: ( 160, 160, 320)

     Smooth grid:  1341081 G-vectors     FFT dimensions: ( 120, 120, 225)

     Largest allocated arrays     est. size (Mb)     dimensions
        Kohn-Sham Wavefunctions        38.58 Mb     (    5267,  480)
        NL pseudopotentials            76.03 Mb     (    5267,  946)
        Each V/rho on FFT grid          3.91 Mb     (  256000)
        Each G-vector array             0.90 Mb     (  118520)
        G-vector shells                 0.08 Mb     (   10286)
     Largest temporary arrays     est. size (Mb)     dimensions
        Auxiliary wavefunctions       154.31 Mb     (    5267, 1920)
        Each subspace H/S matrix       56.25 Mb     (    1920, 1920)
        Each <psi_i|beta_j> matrix      6.93 Mb     (     946,  480)
        Arrays for rho mixing          31.25 Mb     (  256000,    8)

     Initial potential from superposition of free atoms
     Check: negative starting charge=   -1.945124

     starting charge  799.16392, renormalised to  800.00000

     negative rho (up, down):  1.947E+00 0.000E+00


     ************************************************************************
     *
     * You are using vdW-DF for exchange-correlation in this calculation.
     * Please cite the following three references that made this development
     * possible:
     *
     *   M. Dion, H. Rydberg, E. Schroder, D. C. Langreth, and
     *   B. I. Lundqvist, Phys. Rev. Lett. 92, 246401 (2004).
     *
     *   T. Thonhauser, V. R. Cooper, S. Li, A. Puzder, P. Hyldgaard, and
     *   D. C. Langreth, Phys. Rev. B 76, 125112 (2007).
     *
     *   G. Roman-Perez and J. M. Soler, Phys. Rev. Lett. 103, 096102 (2009).
     *
     *
     * If you are using vdW-DF2, please also cite:
     *
     *   K. Lee, E. D. Murray, L. Kong, B. I. Lundqvist, and
     *   D. C. Langreth, Phys. Rev. B 82, 081101(R) (2010).
     *
     *
     * If you are calculating the stress with vdW-DF, please also cite:
     *
     *   R. Sabatini, E. Kucukbenli, B. Kolb, T. Thonhauser, and
     *   S. de Gironcoli, J. Phys.: Condens. Matter 24, 424209 (2012).
     *
     ************************************************************************

     Carrying out vdW-DF run using the following parameters:

     Nqs =      20    Nr_points =    1024   r_max =   100.000
     q_mesh =
               0.00001000     0.04494208     0.09755937     0.15916263
               0.23128650     0.31572767     0.41458969     0.53033537
               0.66584808     0.82450364     1.01025438     1.22772762
               1.48234092     1.78043706     2.12944203     2.53805004
               3.01644009     3.57652955     4.23227104     5.00000000

     Gradients computed in reciprocal space

     ************************************************************************


     Starting wfc are  654 randomized atomic wfcs

     total cpu time spent up to now is      123.2 secs

     Self-consistent Calculation

     iteration #  1     ecut=    50.00 Ry     beta=0.70
     Davidson diagonalization with overlap
     ethr =  1.00E-02,  avg # of iterations =  3.0

     Threshold (ethr) on eigenvalues was too large:
     Diagonalizing with lowered threshold

     Davidson diagonalization with overlap
     ethr =  4.14E-04,  avg # of iterations =  2.0

     negative rho (up, down):  1.947E+00 0.000E+00

     total cpu time spent up to now is      556.4 secs

     total energy              =   -7423.07346947 Ry
     Harris-Foulkes estimate   =   -7426.05258710 Ry
     estimated scf accuracy    <       3.68205469 Ry

     iteration #  2     ecut=    50.00 Ry     beta=0.70
     Davidson diagonalization with overlap
     ethr =  4.60E-04,  avg # of iterations = 11.7

     negative rho (up, down):  1.943E+00 0.000E+00

     total cpu time spent up to now is     1288.2 secs

     total energy              =   -7415.58013561 Ry
     Harris-Foulkes estimate   =   -7432.38442222 Ry
     estimated scf accuracy    <      86.41729016 Ry

     iteration #  3     ecut=    50.00 Ry     beta=0.70
     Davidson diagonalization with overlap
     ethr =  4.60E-04,  avg # of iterations =  6.0

     negative rho (up, down):  1.954E+00 0.000E+00

     total cpu time spent up to now is     1738.1 secs

     total energy              =   -7424.10873128 Ry
     Harris-Foulkes estimate   =   -7425.87807901 Ry
     estimated scf accuracy    <       7.41944821 Ry

     iteration #  4     ecut=    50.00 Ry     beta=0.70
     Davidson diagonalization with overlap
     ethr =  4.60E-04,  avg # of iterations =  5.0

     negative rho (up, down):  1.957E+00 0.000E+00

     total cpu time spent up to now is     1997.5 secs

     total energy              =   -7424.95785193 Ry
     Harris-Foulkes estimate   =   -7425.57667975 Ry
     estimated scf accuracy    <       2.67451693 Ry

     iteration #  5     ecut=    50.00 Ry     beta=0.70
     Davidson diagonalization with overlap
     ethr =  3.34E-04,  avg # of iterations =  7.5

     negative rho (up, down):  1.963E+00 0.000E+00

     total cpu time spent up to now is     2292.2 secs

     total energy              =   -7424.99910434 Ry
     Harris-Foulkes estimate   =   -7425.61565163 Ry
     estimated scf accuracy    <       5.02132553 Ry

     iteration #  6     ecut=    50.00 Ry     beta=0.70
     Davidson diagonalization with overlap
     ethr =  3.34E-04,  avg # of iterations =  4.3

     negative rho (up, down):  1.967E+00 0.000E+00

     total cpu time spent up to now is     2534.9 secs

     total energy              =   -7425.27050950 Ry
     Harris-Foulkes estimate   =   -7425.32679962 Ry
     estimated scf accuracy    <       0.21274442 Ry

     iteration #  7     ecut=    50.00 Ry     beta=0.70
     Davidson diagonalization with overlap
     ethr =  2.66E-05,  avg # of iterations =  4.7

     negative rho (up, down):  1.970E+00 0.000E+00

     total cpu time spent up to now is     2795.2 secs

     total energy              =   -7425.27330019 Ry
     Harris-Foulkes estimate   =   -7425.32050605 Ry
     estimated scf accuracy    <       0.24816973 Ry

     iteration #  8     ecut=    50.00 Ry     beta=0.70
     Davidson diagonalization with overlap
     ethr =  2.66E-05,  avg # of iterations =  3.0

     negative rho (up, down):  1.971E+00 0.000E+00

     total cpu time spent up to now is     3020.7 secs

     total energy              =   -7425.28228292 Ry
     Harris-Foulkes estimate   =   -7425.30131083 Ry
     estimated scf accuracy    <       0.08371937 Ry

     iteration #  9     ecut=    50.00 Ry     beta=0.70
     Davidson diagonalization with overlap
     ethr =  1.05E-05,  avg # of iterations =  8.5

     negative rho (up, down):  1.972E+00 0.000E+00

     total cpu time spent up to now is     3319.1 secs

     total energy              =   -7425.28231482 Ry
     Harris-Foulkes estimate   =   -7425.29326637 Ry
     estimated scf accuracy    <       0.03942501 Ry

     iteration # 10     ecut=    50.00 Ry     beta=0.70
     Davidson diagonalization with overlap
     ethr =  4.93E-06,  avg # of iterations =  6.3

     negative rho (up, down):  1.973E+00 0.000E+00

     total cpu time spent up to now is     3589.3 secs

     total energy              =   -7425.28315293 Ry
     Harris-Foulkes estimate   =   -7425.28677953 Ry
     estimated scf accuracy    <       0.01139021 Ry

     iteration # 11     ecut=    50.00 Ry     beta=0.70
     Davidson diagonalization with overlap
     ethr =  1.42E-06,  avg # of iterations =  7.8

     negative rho (up, down):  1.974E+00 0.000E+00

     total cpu time spent up to now is     3875.8 secs

     total energy              =   -7425.28332086 Ry
     Harris-Foulkes estimate   =   -7425.28475748 Ry
     estimated scf accuracy    <       0.00493543 Ry

     iteration # 12     ecut=    50.00 Ry     beta=0.70
     Davidson diagonalization with overlap
     ethr =  6.17E-07,  avg # of iterations =  2.7

     negative rho (up, down):  1.974E+00 0.000E+00

     total cpu time spent up to now is     4093.7 secs

     total energy              =   -7425.28272505 Ry
     Harris-Foulkes estimate   =   -7425.28383028 Ry
     estimated scf accuracy    <       0.00170022 Ry

     iteration # 13     ecut=    50.00 Ry     beta=0.70
     Davidson diagonalization with overlap
     ethr =  2.13E-07,  avg # of iterations =  5.7

     negative rho (up, down):  1.974E+00 0.000E+00

     total cpu time spent up to now is     4453.7 secs

     total energy              =   -7425.28190407 Ry
     Harris-Foulkes estimate   =   -7425.28475011 Ry
     estimated scf accuracy    <       0.01458233 Ry

     iteration # 14     ecut=    50.00 Ry     beta=0.70
     Davidson diagonalization with overlap
     ethr =  2.13E-07,  avg # of iterations =  3.0

     negative rho (up, down):  1.974E+00 0.000E+00

     total cpu time spent up to now is     4736.8 secs

     total energy              =   -7425.28316376 Ry
     Harris-Foulkes estimate   =   -7425.28344210 Ry
     estimated scf accuracy    <       0.00109004 Ry

     iteration # 15     ecut=    50.00 Ry     beta=0.70
     Davidson diagonalization with overlap
     ethr =  1.36E-07,  avg # of iterations =  2.0

     negative rho (up, down):  1.974E+00 0.000E+00

     total cpu time spent up to now is     4950.5 secs

     total energy              =   -7425.28314419 Ry
     Harris-Foulkes estimate   =   -7425.28345862 Ry
     estimated scf accuracy    <       0.00195471 Ry

     iteration # 16     ecut=    50.00 Ry     beta=0.70
     Davidson diagonalization with overlap
     ethr =  1.36E-07,  avg # of iterations =  2.0

     negative rho (up, down):  1.974E+00 0.000E+00

     total cpu time spent up to now is     5158.4 secs

     total energy              =   -7425.28326115 Ry
     Harris-Foulkes estimate   =   -7425.28340302 Ry
     estimated scf accuracy    <       0.00104445 Ry

     iteration # 17     ecut=    50.00 Ry     beta=0.70
     Davidson diagonalization with overlap
     ethr =  1.31E-07,  avg # of iterations =  1.0

     negative rho (up, down):  1.974E+00 0.000E+00

     total cpu time spent up to now is     5356.2 secs

     total energy              =   -7425.28330634 Ry
     Harris-Foulkes estimate   =   -7425.28335663 Ry
     estimated scf accuracy    <       0.00020818 Ry

     iteration # 18     ecut=    50.00 Ry     beta=0.70
     Davidson diagonalization with overlap
     ethr =  2.60E-08,  avg # of iterations =  2.0

     negative rho (up, down):  1.974E+00 0.000E+00

     total cpu time spent up to now is     5564.7 secs

     total energy              =   -7425.28332903 Ry
     Harris-Foulkes estimate   =   -7425.28333971 Ry
     estimated scf accuracy    <       0.00004455 Ry

     iteration # 19     ecut=    50.00 Ry     beta=0.70
     Davidson diagonalization with overlap
     ethr =  5.57E-09,  avg # of iterations =  2.0

     negative rho (up, down):  1.974E+00 0.000E+00

     total cpu time spent up to now is     5774.8 secs

     total energy              =   -7425.28333279 Ry
     Harris-Foulkes estimate   =   -7425.28333746 Ry
     estimated scf accuracy    <       0.00001882 Ry

     iteration # 20     ecut=    50.00 Ry     beta=0.70
     Davidson diagonalization with overlap
     ethr =  2.35E-09,  avg # of iterations =  2.0

     negative rho (up, down):  1.974E+00 0.000E+00

     total cpu time spent up to now is     5986.1 secs

     total energy              =   -7425.28333458 Ry
     Harris-Foulkes estimate   =   -7425.28333643 Ry
     estimated scf accuracy    <       0.00000645 Ry

     iteration # 21     ecut=    50.00 Ry     beta=0.70
     Davidson diagonalization with overlap
     ethr =  8.07E-10,  avg # of iterations =  2.0

     negative rho (up, down):  1.974E+00 0.000E+00

     total cpu time spent up to now is     6196.0 secs

     total energy              =   -7425.28333550 Ry
     Harris-Foulkes estimate   =   -7425.28333571 Ry
     estimated scf accuracy    <       0.00000082 Ry

     iteration # 22     ecut=    50.00 Ry     beta=0.70
     Davidson diagonalization with overlap
     ethr =  1.03E-10,  avg # of iterations =  3.0

     negative rho (up, down):  1.974E+00 0.000E+00

     total cpu time spent up to now is     6440.7 secs

     total energy              =   -7425.28333569 Ry
     Harris-Foulkes estimate   =   -7425.28333577 Ry
     estimated scf accuracy    <       0.00000046 Ry

     iteration # 23     ecut=    50.00 Ry     beta=0.70
     Davidson diagonalization with overlap
     ethr =  5.70E-11,  avg # of iterations =  3.0

     negative rho (up, down):  1.974E+00 0.000E+00

     total cpu time spent up to now is     6674.6 secs

     total energy              =   -7425.28333573 Ry
     Harris-Foulkes estimate   =   -7425.28333580 Ry
     estimated scf accuracy    <       0.00000020 Ry

     iteration # 24     ecut=    50.00 Ry     beta=0.70
     Davidson diagonalization with overlap
     ethr =  2.55E-11,  avg # of iterations =  2.0

     negative rho (up, down):  1.974E+00 0.000E+00

     total cpu time spent up to now is     6895.9 secs

     total energy              =   -7425.28333578 Ry
     Harris-Foulkes estimate   =   -7425.28333580 Ry
     estimated scf accuracy    <       0.00000023 Ry

     iteration # 25     ecut=    50.00 Ry     beta=0.70
     Davidson diagonalization with overlap
     ethr =  2.55E-11,  avg # of iterations =  2.0

     negative rho (up, down):  1.974E+00 0.000E+00

     total cpu time spent up to now is     7108.3 secs

     total energy              =   -7425.28333580 Ry
     Harris-Foulkes estimate   =   -7425.28333581 Ry
     estimated scf accuracy    <       0.00000004 Ry

     iteration # 26     ecut=    50.00 Ry     beta=0.70
     Davidson diagonalization with overlap
     ethr =  4.47E-12,  avg # of iterations =  2.0

     negative rho (up, down):  1.974E+00 0.000E+00

     total cpu time spent up to now is     7323.6 secs

     total energy              =   -7425.28333580 Ry
     Harris-Foulkes estimate   =   -7425.28333583 Ry
     estimated scf accuracy    <       0.00000026 Ry

     iteration # 27     ecut=    50.00 Ry     beta=0.70
     Davidson diagonalization with overlap
     ethr =  4.47E-12,  avg # of iterations =  2.0

     negative rho (up, down):  1.974E+00 0.000E+00

     total cpu time spent up to now is     7542.0 secs

     total energy              =   -7425.28333582 Ry
     Harris-Foulkes estimate   =   -7425.28333582 Ry
     estimated scf accuracy    <       0.00000002 Ry

     iteration # 28     ecut=    50.00 Ry     beta=0.70
     Davidson diagonalization with overlap
     ethr =  2.88E-12,  avg # of iterations =  2.0

     negative rho (up, down):  1.974E+00 0.000E+00

     total cpu time spent up to now is     7756.9 secs

     total energy              =   -7425.28333582 Ry
     Harris-Foulkes estimate   =   -7425.28333582 Ry
     estimated scf accuracy    <       0.00000004 Ry

     iteration # 29     ecut=    50.00 Ry     beta=0.70
     Davidson diagonalization with overlap
     ethr =  2.88E-12,  avg # of iterations =  2.0

     negative rho (up, down):  1.974E+00 0.000E+00

     total cpu time spent up to now is     7967.3 secs

     End of self-consistent calculation

          k = 0.2500 0.2500 0.0833 (167653 PWs)   bands (ev):

   -19.1840  -7.2120  -6.8675  -6.3416  -6.3415  -5.9127  -5.5031  -5.4117
    -5.4098  -5.2155  -5.2143  -5.0976  -5.0955  -5.0187  -4.9953  -4.9226
    -4.8382  -4.8338  -4.7952  -4.7945  -4.6348  -4.6185  -4.6173  -4.6151
    -4.6087  -4.5537  -4.5534  -4.5426  -4.5405  -4.5045  -4.4936  -4.4904
    -4.4505  -4.4492  -4.4167  -4.4152  -4.3655  -4.3616  -4.3528  -4.3514
    -4.3454  -4.3329  -4.3322  -4.2922  -4.2743  -4.2727  -4.2662  -4.2653
    -4.2340  -4.1852  -4.1705  -4.1680  -4.1677  -4.1635  -4.1574  -4.1523
    -4.1514  -4.1502  -4.0887  -4.0842  -4.0397  -4.0346  -4.0237  -3.9988
    -3.9972  -3.9803  -3.9746  -3.9736  -3.9705  -3.9674  -3.9188  -3.9186
    -3.9066  -3.9042  -3.8035  -3.7985  -3.7983  -3.7921  -3.7567  -3.7507
    -3.7328  -3.7050  -3.7044  -3.6764  -3.6728  -3.6575  -3.6522  -3.6417
    -3.6373  -3.5864  -3.5831  -3.5698  -3.5511  -3.5412  -3.5401  -3.5361
    -3.5357  -3.5128  -3.5081  -3.4771  -3.4728  -3.4524  -3.4507  -3.4187
    -3.4176  -3.3993  -3.3773  -3.3722  -3.3684  -3.3342  -3.3320  -3.2952
    -3.2891  -3.2874  -3.2745  -3.2731  -3.2693  -3.2627  -3.2335  -3.2200
    -3.1816  -3.1791  -3.1717  -3.1621  -3.1610  -3.1558  -3.1369  -3.1363
    -3.1158  -3.1149  -3.1131  -3.0884  -3.0880  -3.0803  -3.0783  -3.0750
    -3.0409  -3.0378  -3.0034  -3.0005  -2.9996  -2.9985  -2.9968  -2.9180
    -2.9086  -2.9075  -2.9046  -2.9024  -2.9014  -2.8979  -2.8971  -2.8961
    -2.8958  -2.8869  -2.8790  -2.8630  -2.8607  -2.8578  -2.8557  -2.8442
    -2.8413  -2.8027  -2.8009  -2.8004  -2.7958  -2.7946  -2.7787  -2.7768
    -2.7702  -2.7687  -2.7660  -2.7086  -2.7077  -2.7036  -2.7016  -2.6981
    -2.6944  -2.6682  -2.6102  -2.6095  -2.6082  -2.6053  -2.5953  -2.5928
    -2.5870  -2.5786  -2.5766  -2.5438  -2.5383  -2.5350  -2.5328  -2.5288
    -2.5283  -2.4922  -2.4908  -2.4822  -2.4803  -2.4789  -2.4769  -2.4357
    -2.4192  -2.4150  -2.3639  -2.3609  -2.3458  -2.3448  -2.3359  -2.3340
    -2.2900  -2.2852  -2.2642  -2.2514  -2.2377  -2.2335  -2.2306  -2.2116
    -2.2096  -2.2008  -2.1834  -2.1511  -2.1436  -2.1313  -2.1266  -2.1265
    -2.1211  -2.1167  -2.1107  -2.1022  -2.0996  -2.0971  -2.0928  -2.0906
    -2.0891  -2.0823  -2.0779  -2.0621  -2.0607  -2.0590  -2.0544  -2.0512
    -2.0484  -2.0289  -2.0244  -2.0147  -2.0132  -2.0072  -2.0064  -1.9695
    -1.9376  -1.9351  -1.9003  -1.8876  -1.8844  -1.8778  -1.8696  -1.8500
    -1.8484  -1.8394  -1.8333  -1.8328  -1.8302  -1.8301  -1.8261  -1.7965
    -1.7953  -1.7943  -1.7513  -1.7495  -1.7135  -1.7071  -1.6628  -1.6623
    -1.6496  -1.6287  -1.6239  -1.6194  -1.6075  -1.6059  -1.5876  -1.5850
    -1.5828  -1.5812  -1.5773  -1.5766  -1.5748  -1.5739  -1.5563  -1.5524
    -1.5417  -1.5265  -1.5098  -1.5095  -1.4851  -1.4810  -1.4778  -1.4758
    -1.4731  -1.4693  -1.4553  -1.4475  -1.4342  -1.4330  -1.4214  -1.4120
    -1.4001  -1.3960  -1.3701  -1.3659  -1.3608  -1.3568  -1.3264  -1.3241
    -1.3156  -1.3125  -1.3090  -1.3054  -1.2853  -1.2830  -1.2750  -1.2677
    -1.2661  -1.2569  -1.2528  -1.2503  -1.2487  -1.2392  -1.2319  -1.2264
    -1.2180  -1.2179  -1.2105  -1.2050  -1.2022  -1.1940  -1.1723  -1.1551
    -1.1496  -1.1479  -1.1462  -1.1438  -1.1322  -1.1059  -1.0896  -1.0874
    -1.0868  -1.0853  -1.0812  -1.0778  -1.0655  -1.0641  -1.0571  -1.0282
    -1.0250  -1.0189  -1.0184  -0.9970  -0.9953  -0.9860  -0.9575  -0.9485
    -0.9239  -0.9198  -0.8944  -0.8937  -0.8901  -0.8899  -0.8874  -0.8830
    -0.8798  -0.8790  -0.8756  -0.8732  -0.8433  -0.8411  -0.8229  -0.8211
    -0.8202  -0.8171  -0.8156  -0.8117  -0.7980  -0.5251  -0.5108  -0.4527
    -0.4505  -0.4168  -0.2559  -0.1923  -0.1893  -0.1556   0.1285   0.1308
     0.4588   0.4627   0.5567   0.5584   0.5972   0.6009   0.7413   0.7480
     0.8655   0.8690   0.9627   1.5543   1.5712   1.5729   1.6123   1.6173
     1.6650   1.6699   1.7388   1.7457   1.9467   1.9511   2.1881   2.2602
     2.2686   2.2805   2.6603   2.6681   2.7333   2.7352   2.7408   2.7440
     2.8927   2.8945   2.9550   3.0331   3.0439   3.2654   3.2701   3.4020
     3.4260   3.4343   3.6974   3.7069   3.8147   3.8337   3.8355   3.9153
     3.9286   4.0176   4.0242   4.2537   4.2596   4.3478   4.3536   4.4655
     4.4725   4.4923   4.5030   4.6669   5.1704   5.3146   5.3333   5.3993
     5.4052   5.5345   5.5761   5.5863   5.6542   5.6962   5.7022   5.7140
     5.7415   5.7492   5.7539   5.8000   6.0091   6.0618   6.0761   6.0882
     6.0918   6.0991   6.1010   6.1043   6.1051   6.1498   6.1912   6.1963

          k = 0.2500 0.2500-0.2500 (167588 PWs)   bands (ev):

   -19.1840  -7.2120  -6.8675  -6.3416  -6.3415  -5.9127  -5.5031  -5.4117
    -5.4098  -5.2155  -5.2143  -5.0976  -5.0955  -5.0187  -4.9953  -4.9226
    -4.8382  -4.8338  -4.7952  -4.7945  -4.6348  -4.6185  -4.6173  -4.6151
    -4.6087  -4.5537  -4.5534  -4.5426  -4.5405  -4.5045  -4.4936  -4.4904
    -4.4505  -4.4492  -4.4167  -4.4152  -4.3655  -4.3616  -4.3528  -4.3514
    -4.3454  -4.3329  -4.3322  -4.2922  -4.2743  -4.2727  -4.2662  -4.2653
    -4.2340  -4.1852  -4.1705  -4.1680  -4.1677  -4.1635  -4.1574  -4.1523
    -4.1515  -4.1502  -4.0887  -4.0842  -4.0397  -4.0346  -4.0237  -3.9987
    -3.9972  -3.9803  -3.9746  -3.9736  -3.9705  -3.9674  -3.9188  -3.9186
    -3.9066  -3.9042  -3.8035  -3.7985  -3.7983  -3.7921  -3.7567  -3.7507
    -3.7328  -3.7050  -3.7044  -3.6764  -3.6728  -3.6575  -3.6522  -3.6417
    -3.6373  -3.5864  -3.5831  -3.5698  -3.5511  -3.5412  -3.5401  -3.5361
    -3.5357  -3.5128  -3.5081  -3.4771  -3.4728  -3.4524  -3.4507  -3.4187
    -3.4176  -3.3993  -3.3773  -3.3722  -3.3684  -3.3342  -3.3320  -3.2952
    -3.2891  -3.2874  -3.2745  -3.2731  -3.2692  -3.2627  -3.2335  -3.2200
    -3.1816  -3.1791  -3.1717  -3.1621  -3.1610  -3.1558  -3.1370  -3.1363
    -3.1158  -3.1149  -3.1131  -3.0884  -3.0880  -3.0803  -3.0783  -3.0750
    -3.0409  -3.0378  -3.0034  -3.0005  -2.9996  -2.9985  -2.9968  -2.9180
    -2.9086  -2.9075  -2.9047  -2.9024  -2.9014  -2.8979  -2.8971  -2.8961
    -2.8958  -2.8869  -2.8790  -2.8630  -2.8607  -2.8578  -2.8557  -2.8442
    -2.8412  -2.8027  -2.8009  -2.8004  -2.7958  -2.7946  -2.7787  -2.7768
    -2.7702  -2.7687  -2.7661  -2.7086  -2.7077  -2.7036  -2.7016  -2.6981
    -2.6944  -2.6682  -2.6102  -2.6095  -2.6082  -2.6053  -2.5953  -2.5928
    -2.5869  -2.5786  -2.5766  -2.5438  -2.5383  -2.5350  -2.5328  -2.5288
    -2.5283  -2.4922  -2.4908  -2.4822  -2.4803  -2.4789  -2.4769  -2.4357
    -2.4192  -2.4150  -2.3639  -2.3609  -2.3458  -2.3448  -2.3359  -2.3340
    -2.2900  -2.2852  -2.2642  -2.2514  -2.2377  -2.2335  -2.2306  -2.2116
    -2.2096  -2.2008  -2.1834  -2.1511  -2.1436  -2.1313  -2.1266  -2.1265
    -2.1211  -2.1167  -2.1107  -2.1022  -2.0996  -2.0971  -2.0928  -2.0906
    -2.0891  -2.0823  -2.0779  -2.0621  -2.0607  -2.0590  -2.0544  -2.0512
    -2.0484  -2.0289  -2.0244  -2.0147  -2.0132  -2.0072  -2.0064  -1.9695
    -1.9376  -1.9350  -1.9003  -1.8876  -1.8844  -1.8778  -1.8696  -1.8499
    -1.8484  -1.8394  -1.8333  -1.8328  -1.8302  -1.8301  -1.8261  -1.7965
    -1.7953  -1.7943  -1.7513  -1.7495  -1.7135  -1.7071  -1.6628  -1.6623
    -1.6497  -1.6287  -1.6239  -1.6194  -1.6075  -1.6059  -1.5876  -1.5850
    -1.5828  -1.5812  -1.5773  -1.5766  -1.5748  -1.5739  -1.5563  -1.5524
    -1.5417  -1.5265  -1.5098  -1.5095  -1.4851  -1.4810  -1.4778  -1.4758
    -1.4731  -1.4692  -1.4553  -1.4475  -1.4342  -1.4330  -1.4214  -1.4120
    -1.4001  -1.3960  -1.3701  -1.3659  -1.3608  -1.3568  -1.3264  -1.3241
    -1.3156  -1.3125  -1.3090  -1.3054  -1.2853  -1.2830  -1.2750  -1.2677
    -1.2661  -1.2569  -1.2528  -1.2503  -1.2487  -1.2392  -1.2319  -1.2264
    -1.2180  -1.2179  -1.2105  -1.2050  -1.2022  -1.1940  -1.1723  -1.1551
    -1.1496  -1.1479  -1.1462  -1.1438  -1.1322  -1.1059  -1.0896  -1.0873
    -1.0868  -1.0853  -1.0812  -1.0778  -1.0655  -1.0641  -1.0571  -1.0282
    -1.0250  -1.0189  -1.0184  -0.9970  -0.9953  -0.9860  -0.9575  -0.9485
    -0.9239  -0.9198  -0.8944  -0.8937  -0.8901  -0.8899  -0.8874  -0.8830
    -0.8798  -0.8790  -0.8756  -0.8732  -0.8433  -0.8411  -0.8229  -0.8211
    -0.8202  -0.8171  -0.8156  -0.8116  -0.7980  -0.5251  -0.5108  -0.4527
    -0.4505  -0.4168  -0.2559  -0.1923  -0.1893  -0.1556   0.1285   0.1308
     0.4588   0.4627   0.5567   0.5584   0.5972   0.6009   0.7413   0.7481
     0.8655   0.8690   0.9627   1.5543   1.5712   1.5729   1.6123   1.6173
     1.6650   1.6699   1.7388   1.7457   1.9467   1.9511   2.1881   2.2602
     2.2686   2.2805   2.6603   2.6681   2.7333   2.7352   2.7408   2.7440
     2.8927   2.8945   2.9551   3.0331   3.0439   3.2654   3.2701   3.4020
     3.4260   3.4344   3.6974   3.7069   3.8147   3.8337   3.8355   3.9154
     3.9287   4.0176   4.0242   4.2537   4.2595   4.3478   4.3536   4.4655
     4.4725   4.4923   4.5030   4.6671   5.1613   5.3148   5.3270   5.3986
     5.4052   5.5390   5.5763   5.5863   5.6603   5.6995   5.7011   5.7223
     5.7478   5.7538   5.7662   5.8003   6.0296   6.0650   6.0767   6.0912
     6.0927   6.0992   6.1027   6.1046   6.1056   6.1396   6.1840   6.2327

          k =-0.2500-0.2500 0.0833 (167653 PWs)   bands (ev):

   -19.1840  -7.2120  -6.8675  -6.3416  -6.3415  -5.9127  -5.5031  -5.4117
    -5.4098  -5.2155  -5.2143  -5.0976  -5.0955  -5.0187  -4.9953  -4.9226
    -4.8382  -4.8338  -4.7952  -4.7945  -4.6348  -4.6185  -4.6173  -4.6151
    -4.6087  -4.5537  -4.5534  -4.5426  -4.5405  -4.5045  -4.4936  -4.4904
    -4.4505  -4.4492  -4.4167  -4.4152  -4.3655  -4.3616  -4.3528  -4.3514
    -4.3454  -4.3329  -4.3322  -4.2922  -4.2743  -4.2727  -4.2662  -4.2653
    -4.2340  -4.1852  -4.1705  -4.1680  -4.1677  -4.1635  -4.1574  -4.1523
    -4.1514  -4.1502  -4.0887  -4.0842  -4.0397  -4.0346  -4.0237  -3.9988
    -3.9972  -3.9803  -3.9746  -3.9736  -3.9705  -3.9674  -3.9188  -3.9186
    -3.9066  -3.9042  -3.8035  -3.7985  -3.7983  -3.7921  -3.7567  -3.7507
    -3.7328  -3.7050  -3.7044  -3.6764  -3.6728  -3.6575  -3.6522  -3.6417
    -3.6373  -3.5864  -3.5831  -3.5698  -3.5511  -3.5412  -3.5401  -3.5361
    -3.5357  -3.5128  -3.5081  -3.4771  -3.4728  -3.4524  -3.4507  -3.4187
    -3.4176  -3.3993  -3.3773  -3.3722  -3.3684  -3.3342  -3.3320  -3.2952
    -3.2891  -3.2874  -3.2745  -3.2731  -3.2693  -3.2627  -3.2335  -3.2200
    -3.1816  -3.1791  -3.1717  -3.1621  -3.1610  -3.1558  -3.1369  -3.1363
    -3.1158  -3.1149  -3.1131  -3.0884  -3.0880  -3.0803  -3.0783  -3.0750
    -3.0409  -3.0378  -3.0034  -3.0005  -2.9996  -2.9985  -2.9968  -2.9180
    -2.9086  -2.9075  -2.9046  -2.9024  -2.9014  -2.8979  -2.8971  -2.8961
    -2.8958  -2.8869  -2.8790  -2.8630  -2.8607  -2.8578  -2.8557  -2.8442
    -2.8413  -2.8027  -2.8009  -2.8004  -2.7958  -2.7946  -2.7787  -2.7768
    -2.7702  -2.7687  -2.7660  -2.7086  -2.7077  -2.7036  -2.7016  -2.6981
    -2.6944  -2.6682  -2.6102  -2.6095  -2.6082  -2.6053  -2.5953  -2.5928
    -2.5870  -2.5786  -2.5766  -2.5438  -2.5383  -2.5350  -2.5328  -2.5288
    -2.5283  -2.4922  -2.4908  -2.4822  -2.4803  -2.4789  -2.4769  -2.4357
    -2.4192  -2.4150  -2.3639  -2.3609  -2.3458  -2.3448  -2.3359  -2.3340
    -2.2900  -2.2852  -2.2642  -2.2514  -2.2377  -2.2335  -2.2306  -2.2116
    -2.2096  -2.2008  -2.1834  -2.1511  -2.1436  -2.1313  -2.1266  -2.1265
    -2.1211  -2.1167  -2.1107  -2.1022  -2.0996  -2.0971  -2.0928  -2.0906
    -2.0891  -2.0823  -2.0779  -2.0621  -2.0607  -2.0590  -2.0544  -2.0512
    -2.0484  -2.0289  -2.0244  -2.0147  -2.0132  -2.0072  -2.0064  -1.9695
    -1.9376  -1.9351  -1.9003  -1.8876  -1.8844  -1.8778  -1.8696  -1.8500
    -1.8484  -1.8394  -1.8333  -1.8328  -1.8302  -1.8301  -1.8261  -1.7965
    -1.7953  -1.7943  -1.7513  -1.7495  -1.7135  -1.7071  -1.6628  -1.6623
    -1.6496  -1.6287  -1.6239  -1.6194  -1.6075  -1.6059  -1.5876  -1.5850
    -1.5828  -1.5812  -1.5773  -1.5766  -1.5748  -1.5739  -1.5563  -1.5524
    -1.5417  -1.5265  -1.5098  -1.5095  -1.4851  -1.4810  -1.4778  -1.4758
    -1.4731  -1.4693  -1.4553  -1.4475  -1.4342  -1.4330  -1.4214  -1.4120
    -1.4001  -1.3960  -1.3701  -1.3659  -1.3608  -1.3568  -1.3264  -1.3241
    -1.3156  -1.3125  -1.3090  -1.3054  -1.2853  -1.2830  -1.2750  -1.2677
    -1.2661  -1.2569  -1.2528  -1.2503  -1.2487  -1.2392  -1.2319  -1.2264
    -1.2180  -1.2179  -1.2105  -1.2050  -1.2022  -1.1940  -1.1723  -1.1551
    -1.1496  -1.1479  -1.1462  -1.1438  -1.1322  -1.1059  -1.0896  -1.0874
    -1.0868  -1.0853  -1.0812  -1.0778  -1.0655  -1.0641  -1.0571  -1.0282
    -1.0250  -1.0189  -1.0184  -0.9970  -0.9953  -0.9860  -0.9575  -0.9485
    -0.9239  -0.9198  -0.8944  -0.8937  -0.8901  -0.8899  -0.8874  -0.8830
    -0.8798  -0.8790  -0.8756  -0.8732  -0.8433  -0.8411  -0.8229  -0.8211
    -0.8202  -0.8171  -0.8156  -0.8117  -0.7980  -0.5251  -0.5108  -0.4527
    -0.4505  -0.4168  -0.2559  -0.1923  -0.1893  -0.1556   0.1285   0.1308
     0.4588   0.4627   0.5567   0.5584   0.5972   0.6009   0.7413   0.7480
     0.8655   0.8690   0.9627   1.5543   1.5712   1.5729   1.6123   1.6173
     1.6650   1.6699   1.7388   1.7457   1.9467   1.9511   2.1881   2.2602
     2.2686   2.2805   2.6603   2.6681   2.7333   2.7352   2.7408   2.7440
     2.8927   2.8945   2.9550   3.0331   3.0439   3.2654   3.2701   3.4020
     3.4260   3.4343   3.6974   3.7069   3.8147   3.8337   3.8355   3.9153
     3.9286   4.0176   4.0242   4.2537   4.2596   4.3478   4.3536   4.4655
     4.4725   4.4923   4.5030   4.6669   5.1700   5.3146   5.3347   5.3992
     5.4052   5.5305   5.5760   5.5863   5.6552   5.6970   5.7022   5.7181
     5.7414   5.7496   5.7540   5.8003   6.0107   6.0618   6.0764   6.0880
     6.0922   6.0992   6.0995   6.1043   6.1052   6.1502   6.1841   6.1909

          k =-0.2500 0.2500-0.0833 (167653 PWs)   bands (ev):

   -19.1840  -7.2120  -6.8675  -6.3421  -6.3410  -5.9127  -5.5031  -5.4116
    -5.4098  -5.2155  -5.2143  -5.0979  -5.0953  -5.0187  -4.9952  -4.9226
    -4.8383  -4.8338  -4.7953  -4.7945  -4.6348  -4.6183  -4.6173  -4.6153
    -4.6087  -4.5537  -4.5534  -4.5424  -4.5406  -4.5045  -4.4934  -4.4905
    -4.4504  -4.4493  -4.4166  -4.4153  -4.3652  -4.3617  -4.3528  -4.3514
    -4.3454  -4.3329  -4.3322  -4.2922  -4.2742  -4.2729  -4.2662  -4.2654
    -4.2340  -4.1851  -4.1705  -4.1682  -4.1676  -4.1637  -4.1574  -4.1523
    -4.1515  -4.1502  -4.0885  -4.0844  -4.0394  -4.0347  -4.0236  -3.9987
    -3.9974  -3.9806  -3.9743  -3.9738  -3.9707  -3.9674  -3.9192  -3.9183
    -3.9065  -3.9043  -3.8020  -3.7988  -3.7980  -3.7922  -3.7567  -3.7507
    -3.7328  -3.7062  -3.7038  -3.6760  -3.6730  -3.6569  -3.6522  -3.6417
    -3.6376  -3.5865  -3.5832  -3.5737  -3.5505  -3.5412  -3.5399  -3.5359
    -3.5354  -3.5116  -3.5081  -3.4792  -3.4722  -3.4526  -3.4489  -3.4208
    -3.4152  -3.3993  -3.3862  -3.3699  -3.3572  -3.3342  -3.3321  -3.2969
    -3.2891  -3.2869  -3.2753  -3.2744  -3.2692  -3.2648  -3.2333  -3.2202
    -3.1815  -3.1790  -3.1717  -3.1619  -3.1613  -3.1561  -3.1370  -3.1362
    -3.1158  -3.1151  -3.1130  -3.0880  -3.0875  -3.0805  -3.0775  -3.0750
    -3.0406  -3.0378  -3.0036  -3.0009  -3.0004  -2.9983  -2.9969  -2.9180
    -2.9086  -2.9075  -2.9044  -2.9026  -2.9014  -2.8981  -2.8968  -2.8960
    -2.8956  -2.8869  -2.8790  -2.8637  -2.8601  -2.8575  -2.8559  -2.8443
    -2.8398  -2.8027  -2.8007  -2.8004  -2.7972  -2.7948  -2.7786  -2.7769
    -2.7697  -2.7689  -2.7660  -2.7097  -2.7072  -2.7025  -2.7017  -2.6972
    -2.6942  -2.6687  -2.6098  -2.6095  -2.6080  -2.6053  -2.5948  -2.5924
    -2.5865  -2.5789  -2.5763  -2.5444  -2.5383  -2.5341  -2.5319  -2.5301
    -2.5284  -2.4923  -2.4904  -2.4817  -2.4812  -2.4790  -2.4770  -2.4364
    -2.4192  -2.4186  -2.3645  -2.3606  -2.3468  -2.3437  -2.3357  -2.3347
    -2.2915  -2.2853  -2.2642  -2.2527  -2.2365  -2.2335  -2.2305  -2.2118
    -2.2091  -2.2008  -2.1834  -2.1518  -2.1427  -2.1329  -2.1272  -2.1259
    -2.1195  -2.1166  -2.1118  -2.1012  -2.0993  -2.0973  -2.0936  -2.0905
    -2.0890  -2.0820  -2.0786  -2.0631  -2.0602  -2.0589  -2.0535  -2.0511
    -2.0485  -2.0288  -2.0250  -2.0147  -2.0130  -2.0072  -2.0060  -1.9695
    -1.9374  -1.9349  -1.9003  -1.8854  -1.8836  -1.8746  -1.8704  -1.8524
    -1.8485  -1.8364  -1.8329  -1.8312  -1.8303  -1.8299  -1.8262  -1.7967
    -1.7953  -1.7943  -1.7516  -1.7494  -1.7126  -1.7076  -1.6648  -1.6625
    -1.6503  -1.6280  -1.6239  -1.6192  -1.6112  -1.6024  -1.5904  -1.5859
    -1.5819  -1.5793  -1.5774  -1.5764  -1.5748  -1.5731  -1.5553  -1.5527
    -1.5418  -1.5263  -1.5099  -1.5072  -1.4896  -1.4798  -1.4786  -1.4762
    -1.4757  -1.4694  -1.4510  -1.4476  -1.4372  -1.4328  -1.4221  -1.4120
    -1.4009  -1.3955  -1.3694  -1.3673  -1.3594  -1.3578  -1.3286  -1.3200
    -1.3163  -1.3126  -1.3072  -1.3062  -1.2859  -1.2822  -1.2736  -1.2729
    -1.2635  -1.2575  -1.2540  -1.2501  -1.2490  -1.2373  -1.2310  -1.2247
    -1.2180  -1.2167  -1.2119  -1.2020  -1.2000  -1.1941  -1.1681  -1.1545
    -1.1497  -1.1469  -1.1448  -1.1438  -1.1352  -1.1067  -1.0878  -1.0873
    -1.0869  -1.0853  -1.0836  -1.0776  -1.0726  -1.0646  -1.0623  -1.0274
    -1.0253  -1.0190  -1.0178  -0.9968  -0.9957  -0.9860  -0.9580  -0.9486
    -0.9239  -0.9199  -0.8942  -0.8934  -0.8900  -0.8899  -0.8874  -0.8827
    -0.8790  -0.8783  -0.8752  -0.8732  -0.8431  -0.8417  -0.8237  -0.8203
    -0.8180  -0.8170  -0.8155  -0.8148  -0.7981  -0.5250  -0.5108  -0.4542
    -0.4502  -0.4167  -0.2542  -0.1916  -0.1895  -0.1546   0.1293   0.1296
     0.4588   0.4630   0.5573   0.5579   0.5981   0.6011   0.7426   0.7458
     0.8654   0.8687   0.9628   1.5545   1.5712   1.5726   1.6103   1.6173
     1.6626   1.6730   1.7396   1.7448   1.9474   1.9505   2.1879   2.2599
     2.2687   2.2807   2.6590   2.6692   2.7337   2.7349   2.7409   2.7439
     2.8932   2.8941   2.9544   3.0359   3.0432   3.2670   3.2700   3.4019
     3.4264   3.4337   3.6990   3.7057   3.8119   3.8337   3.8357   3.9084
     3.9379   4.0183   4.0241   4.2542   4.2593   4.3480   4.3534   4.4647
     4.4722   4.4894   4.5036   4.6640   5.1679   5.3233   5.3268   5.4001
     5.4074   5.5280   5.5770   5.5858   5.6509   5.6968   5.7012   5.7083
     5.7506   5.7532   5.7598   5.8007   6.0232   6.0580   6.0759   6.0902
     6.0932   6.0961   6.1004   6.1039   6.1045   6.1591   6.1653   6.2072

          k = 0.2500-0.2500-0.0833 (167653 PWs)   bands (ev):

   -19.1840  -7.2120  -6.8675  -6.3421  -6.3410  -5.9127  -5.5031  -5.4116
    -5.4098  -5.2155  -5.2143  -5.0979  -5.0953  -5.0187  -4.9952  -4.9226
    -4.8383  -4.8338  -4.7953  -4.7945  -4.6348  -4.6183  -4.6173  -4.6153
    -4.6087  -4.5537  -4.5534  -4.5424  -4.5406  -4.5045  -4.4934  -4.4905
    -4.4504  -4.4493  -4.4166  -4.4153  -4.3652  -4.3617  -4.3528  -4.3514
    -4.3454  -4.3329  -4.3322  -4.2922  -4.2742  -4.2729  -4.2662  -4.2654
    -4.2340  -4.1851  -4.1705  -4.1682  -4.1676  -4.1637  -4.1574  -4.1523
    -4.1515  -4.1502  -4.0885  -4.0844  -4.0394  -4.0347  -4.0236  -3.9987
    -3.9974  -3.9806  -3.9743  -3.9738  -3.9707  -3.9674  -3.9192  -3.9183
    -3.9065  -3.9043  -3.8020  -3.7988  -3.7980  -3.7922  -3.7567  -3.7507
    -3.7328  -3.7062  -3.7038  -3.6760  -3.6730  -3.6569  -3.6522  -3.6417
    -3.6376  -3.5865  -3.5832  -3.5737  -3.5505  -3.5412  -3.5399  -3.5359
    -3.5354  -3.5116  -3.5081  -3.4792  -3.4722  -3.4526  -3.4489  -3.4208
    -3.4152  -3.3993  -3.3862  -3.3699  -3.3572  -3.3342  -3.3321  -3.2969
    -3.2891  -3.2869  -3.2753  -3.2744  -3.2692  -3.2648  -3.2333  -3.2202
    -3.1815  -3.1790  -3.1717  -3.1619  -3.1613  -3.1561  -3.1370  -3.1362
    -3.1158  -3.1151  -3.1130  -3.0880  -3.0875  -3.0805  -3.0775  -3.0750
    -3.0406  -3.0378  -3.0036  -3.0009  -3.0004  -2.9983  -2.9969  -2.9180
    -2.9086  -2.9075  -2.9044  -2.9026  -2.9014  -2.8981  -2.8968  -2.8960
    -2.8956  -2.8869  -2.8790  -2.8637  -2.8601  -2.8575  -2.8559  -2.8443
    -2.8398  -2.8027  -2.8007  -2.8004  -2.7972  -2.7948  -2.7786  -2.7769
    -2.7697  -2.7689  -2.7660  -2.7097  -2.7072  -2.7025  -2.7017  -2.6972
    -2.6942  -2.6687  -2.6098  -2.6095  -2.6080  -2.6053  -2.5948  -2.5924
    -2.5865  -2.5789  -2.5763  -2.5444  -2.5383  -2.5341  -2.5319  -2.5301
    -2.5284  -2.4923  -2.4904  -2.4817  -2.4812  -2.4790  -2.4770  -2.4364
    -2.4192  -2.4186  -2.3645  -2.3606  -2.3468  -2.3437  -2.3357  -2.3347
    -2.2915  -2.2853  -2.2642  -2.2527  -2.2365  -2.2335  -2.2305  -2.2118
    -2.2091  -2.2008  -2.1834  -2.1518  -2.1427  -2.1329  -2.1272  -2.1259
    -2.1195  -2.1166  -2.1118  -2.1012  -2.0993  -2.0973  -2.0936  -2.0905
    -2.0890  -2.0820  -2.0786  -2.0631  -2.0602  -2.0589  -2.0535  -2.0511
    -2.0485  -2.0288  -2.0250  -2.0147  -2.0130  -2.0072  -2.0060  -1.9695
    -1.9374  -1.9349  -1.9003  -1.8854  -1.8836  -1.8746  -1.8704  -1.8524
    -1.8485  -1.8364  -1.8329  -1.8312  -1.8303  -1.8299  -1.8262  -1.7967
    -1.7953  -1.7943  -1.7516  -1.7494  -1.7126  -1.7076  -1.6648  -1.6625
    -1.6503  -1.6280  -1.6239  -1.6192  -1.6112  -1.6024  -1.5904  -1.5859
    -1.5819  -1.5793  -1.5774  -1.5764  -1.5748  -1.5731  -1.5553  -1.5527
    -1.5418  -1.5263  -1.5099  -1.5072  -1.4896  -1.4798  -1.4786  -1.4762
    -1.4757  -1.4694  -1.4510  -1.4476  -1.4372  -1.4328  -1.4221  -1.4120
    -1.4009  -1.3955  -1.3694  -1.3673  -1.3594  -1.3578  -1.3286  -1.3200
    -1.3163  -1.3126  -1.3072  -1.3062  -1.2859  -1.2822  -1.2736  -1.2729
    -1.2635  -1.2575  -1.2540  -1.2501  -1.2490  -1.2373  -1.2310  -1.2247
    -1.2180  -1.2167  -1.2119  -1.2020  -1.2000  -1.1941  -1.1681  -1.1545
    -1.1497  -1.1469  -1.1448  -1.1438  -1.1352  -1.1067  -1.0878  -1.0873
    -1.0869  -1.0853  -1.0836  -1.0776  -1.0726  -1.0646  -1.0623  -1.0274
    -1.0253  -1.0190  -1.0178  -0.9968  -0.9957  -0.9860  -0.9580  -0.9486
    -0.9239  -0.9199  -0.8942  -0.8934  -0.8900  -0.8899  -0.8874  -0.8827
    -0.8790  -0.8783  -0.8752  -0.8732  -0.8431  -0.8417  -0.8237  -0.8203
    -0.8180  -0.8170  -0.8155  -0.8148  -0.7981  -0.5250  -0.5108  -0.4542
    -0.4502  -0.4167  -0.2542  -0.1916  -0.1895  -0.1546   0.1293   0.1296
     0.4588   0.4630   0.5573   0.5579   0.5981   0.6011   0.7426   0.7458
     0.8654   0.8687   0.9628   1.5545   1.5712   1.5726   1.6103   1.6173
     1.6626   1.6730   1.7396   1.7448   1.9474   1.9505   2.1879   2.2599
     2.2687   2.2807   2.6590   2.6692   2.7337   2.7349   2.7409   2.7439
     2.8932   2.8941   2.9544   3.0359   3.0432   3.2670   3.2700   3.4019
     3.4264   3.4337   3.6990   3.7057   3.8119   3.8337   3.8357   3.9084
     3.9379   4.0183   4.0241   4.2542   4.2593   4.3480   4.3534   4.4647
     4.4722   4.4894   4.5036   4.6640   5.1679   5.3231   5.3272   5.4001
     5.4074   5.5277   5.5770   5.5858   5.6510   5.6969   5.7013   5.7083
     5.7507   5.7532   5.7600   5.8007   6.0234   6.0581   6.0759   6.0899
     6.0934   6.0962   6.1004   6.1038   6.1045   6.1592   6.1645   6.2066

          k =-0.2500 0.2500 0.2500 (167588 PWs)   bands (ev):

   -19.1840  -7.2120  -6.8675  -6.3421  -6.3410  -5.9127  -5.5031  -5.4116
    -5.4098  -5.2155  -5.2143  -5.0979  -5.0953  -5.0187  -4.9953  -4.9226
    -4.8383  -4.8338  -4.7953  -4.7945  -4.6348  -4.6183  -4.6173  -4.6153
    -4.6087  -4.5537  -4.5534  -4.5424  -4.5406  -4.5045  -4.4934  -4.4905
    -4.4504  -4.4493  -4.4166  -4.4153  -4.3652  -4.3617  -4.3528  -4.3514
    -4.3454  -4.3329  -4.3322  -4.2922  -4.2742  -4.2729  -4.2662  -4.2654
    -4.2340  -4.1851  -4.1705  -4.1682  -4.1676  -4.1637  -4.1574  -4.1523
    -4.1515  -4.1502  -4.0885  -4.0844  -4.0394  -4.0347  -4.0236  -3.9987
    -3.9974  -3.9806  -3.9743  -3.9738  -3.9707  -3.9674  -3.9192  -3.9183
    -3.9065  -3.9043  -3.8020  -3.7988  -3.7980  -3.7922  -3.7567  -3.7507
    -3.7328  -3.7062  -3.7038  -3.6760  -3.6730  -3.6569  -3.6522  -3.6417
    -3.6376  -3.5865  -3.5832  -3.5737  -3.5505  -3.5412  -3.5399  -3.5359
    -3.5354  -3.5116  -3.5081  -3.4792  -3.4722  -3.4526  -3.4489  -3.4208
    -3.4152  -3.3993  -3.3862  -3.3699  -3.3572  -3.3342  -3.3321  -3.2969
    -3.2891  -3.2869  -3.2753  -3.2744  -3.2692  -3.2648  -3.2333  -3.2202
    -3.1815  -3.1790  -3.1717  -3.1619  -3.1613  -3.1561  -3.1370  -3.1362
    -3.1158  -3.1151  -3.1130  -3.0880  -3.0875  -3.0805  -3.0775  -3.0750
    -3.0406  -3.0378  -3.0036  -3.0009  -3.0004  -2.9983  -2.9969  -2.9180
    -2.9086  -2.9075  -2.9044  -2.9026  -2.9014  -2.8981  -2.8968  -2.8959
    -2.8956  -2.8869  -2.8790  -2.8637  -2.8601  -2.8575  -2.8559  -2.8443
    -2.8398  -2.8027  -2.8007  -2.8004  -2.7972  -2.7948  -2.7786  -2.7769
    -2.7697  -2.7689  -2.7660  -2.7097  -2.7072  -2.7025  -2.7017  -2.6972
    -2.6942  -2.6687  -2.6098  -2.6095  -2.6080  -2.6053  -2.5948  -2.5924
    -2.5865  -2.5789  -2.5763  -2.5444  -2.5383  -2.5341  -2.5319  -2.5301
    -2.5284  -2.4923  -2.4904  -2.4817  -2.4812  -2.4790  -2.4770  -2.4364
    -2.4192  -2.4186  -2.3645  -2.3606  -2.3468  -2.3437  -2.3357  -2.3347
    -2.2915  -2.2853  -2.2642  -2.2527  -2.2365  -2.2335  -2.2305  -2.2118
    -2.2091  -2.2008  -2.1834  -2.1518  -2.1427  -2.1329  -2.1272  -2.1259
    -2.1195  -2.1166  -2.1118  -2.1012  -2.0993  -2.0973  -2.0936  -2.0905
    -2.0890  -2.0820  -2.0786  -2.0631  -2.0602  -2.0589  -2.0535  -2.0511
    -2.0485  -2.0288  -2.0250  -2.0147  -2.0130  -2.0071  -2.0060  -1.9696
    -1.9374  -1.9349  -1.9003  -1.8854  -1.8836  -1.8746  -1.8704  -1.8524
    -1.8485  -1.8364  -1.8329  -1.8312  -1.8303  -1.8299  -1.8262  -1.7967
    -1.7953  -1.7943  -1.7516  -1.7494  -1.7126  -1.7076  -1.6648  -1.6625
    -1.6503  -1.6280  -1.6239  -1.6192  -1.6112  -1.6024  -1.5904  -1.5859
    -1.5819  -1.5793  -1.5774  -1.5764  -1.5748  -1.5731  -1.5553  -1.5527
    -1.5418  -1.5263  -1.5099  -1.5072  -1.4896  -1.4798  -1.4786  -1.4762
    -1.4757  -1.4694  -1.4510  -1.4475  -1.4372  -1.4328  -1.4221  -1.4120
    -1.4009  -1.3955  -1.3694  -1.3673  -1.3594  -1.3578  -1.3286  -1.3200
    -1.3163  -1.3126  -1.3072  -1.3062  -1.2859  -1.2822  -1.2736  -1.2729
    -1.2635  -1.2575  -1.2540  -1.2501  -1.2490  -1.2373  -1.2310  -1.2248
    -1.2180  -1.2167  -1.2119  -1.2020  -1.2000  -1.1941  -1.1681  -1.1545
    -1.1497  -1.1469  -1.1448  -1.1438  -1.1352  -1.1067  -1.0878  -1.0873
    -1.0869  -1.0853  -1.0836  -1.0776  -1.0726  -1.0646  -1.0623  -1.0274
    -1.0253  -1.0190  -1.0178  -0.9968  -0.9957  -0.9860  -0.9580  -0.9486
    -0.9239  -0.9199  -0.8942  -0.8934  -0.8900  -0.8899  -0.8874  -0.8828
    -0.8790  -0.8783  -0.8752  -0.8732  -0.8431  -0.8417  -0.8237  -0.8203
    -0.8180  -0.8170  -0.8154  -0.8148  -0.7981  -0.5250  -0.5108  -0.4542
    -0.4502  -0.4167  -0.2542  -0.1916  -0.1895  -0.1546   0.1293   0.1296
     0.4588   0.4630   0.5574   0.5579   0.5981   0.6011   0.7426   0.7458
     0.8654   0.8687   0.9628   1.5545   1.5712   1.5726   1.6103   1.6173
     1.6626   1.6730   1.7396   1.7448   1.9474   1.9505   2.1879   2.2599
     2.2687   2.2807   2.6590   2.6692   2.7337   2.7349   2.7409   2.7439
     2.8932   2.8941   2.9544   3.0359   3.0432   3.2670   3.2700   3.4019
     3.4264   3.4337   3.6990   3.7057   3.8119   3.8337   3.8357   3.9084
     3.9380   4.0183   4.0241   4.2542   4.2593   4.3480   4.3534   4.4647
     4.4722   4.4894   4.5036   4.6641   5.1593   5.3176   5.3256   5.4000
     5.4068   5.5322   5.5771   5.5858   5.6572   5.6975   5.7030   5.7386
     5.7500   5.7530   5.7594   5.8006   6.0480   6.0584   6.0764   6.0859
     6.0926   6.0991   6.1021   6.1044   6.1174   6.1291   6.1896   6.2224

     the Fermi energy is     0.8181 ev

!    total energy              =   -7425.28333583 Ry
     Harris-Foulkes estimate   =   -7425.28333582 Ry
     estimated scf accuracy    <          3.2E-09 Ry

     The total energy is the sum of the following terms:

     one-electron contribution =  -48756.01854785 Ry
     hartree contribution      =   24927.49897960 Ry
     xc contribution           =   -3604.25022016 Ry
     ewald contribution        =   20007.48904064 Ry
     smearing contrib. (-TS)   =      -0.00258805 Ry

     convergence has been achieved in  29 iterations

     Writing output data file 6329541.save

     init_run     :    116.11s CPU    122.10s WALL (       1 calls)
     electrons    :   7539.30s CPU   7844.64s WALL (       1 calls)

     Called by init_run:
     wfcinit      :     78.53s CPU     83.79s WALL (       1 calls)
     potinit      :      7.76s CPU      8.08s WALL (       1 calls)

     Called by electrons:
     c_bands      :   5588.87s CPU   5825.35s WALL (      30 calls)
     sum_band     :   1197.32s CPU   1251.83s WALL (      30 calls)
     v_of_rho     :    150.77s CPU    160.37s WALL (      30 calls)
     newd         :    620.46s CPU    624.44s WALL (      30 calls)
     mix_rho      :      3.99s CPU      4.38s WALL (      30 calls)
     vdW_energy   :      7.00s CPU      7.48s WALL (      30 calls)
     vdW_ffts     :     85.00s CPU     90.04s WALL (      60 calls)
     vdW_v        :     18.74s CPU     19.49s WALL (      30 calls)

     Called by c_bands:
     init_us_2    :      8.84s CPU      9.13s WALL (     366 calls)
     cegterg      :   5522.20s CPU   5757.75s WALL (     180 calls)

     Called by *egterg:
     h_psi        :   2493.28s CPU   2701.76s WALL (     859 calls)
     s_psi        :    365.85s CPU    367.46s WALL (     859 calls)
     g_psi        :      4.77s CPU      4.76s WALL (     673 calls)
     cdiaghg      :   1482.36s CPU   1486.59s WALL (     847 calls)

     Called by h_psi:
     add_vuspsi   :    366.38s CPU    368.11s WALL (     859 calls)

     General routines
     calbec       :    561.64s CPU    563.57s WALL (    1039 calls)
     fft          :    461.38s CPU    471.44s WALL (    1980 calls)
     ffts         :      2.25s CPU      2.44s WALL (      60 calls)
     fftw         :   2060.06s CPU   2302.18s WALL (  482274 calls)
     interpolate  :      5.90s CPU      6.50s WALL (      60 calls)
     davcio       :      0.01s CPU      0.14s WALL (       6 calls)

     Parallel routines
     fft_scatter  :   1937.63s CPU   2157.87s WALL (  484314 calls)

     PWSCF        :     2h 7m CPU        2h13m WALL


   This run was terminated on:  21: 2:56  29Jun2015            

=------------------------------------------------------------------------------=
   JOB DONE.
=------------------------------------------------------------------------------=
