Setting SGE environment for SCC

     Program PWSCF v.5.1.2 starts on 25Jun2015 at 10:26:20 

     This program is part of the open-source Quantum ESPRESSO suite
     for quantum simulation of materials; please cite
         "P. Giannozzi et al., J. Phys.:Condens. Matter 21 395502 (2009);
          URL http://www.quantum-espresso.org", 
     in publications or presentations arising from this work. More details at
     http://www.quantum-espresso.org/quote

     Parallel version (MPI), running on    32 processors
     R & G space division:  proc/nbgrp/npool/nimage =      32
     Reading input from top.O1.Au62.d.3.0.phi.45.psi.90.in
Warning: card &IONS ignored
Warning: card / ignored
Warning: card &CELL ignored
Warning: card / ignored

     Current dimensions of program PWSCF are:
     Max number of different atomic species (ntypx) = 10
     Max number of k-points (npk) =  40000
     Max angular momentum in pseudopotentials (lmaxx) =  3

     IMPORTANT: XC functional enforced from input :
     Exchange-correlation      = VDW-DF ( 1  4  4  0 1 0)
     Any further DFT definition will be discarded
     Please, verify this is what you really want


     Subspace diagonalization in iterative solution of the eigenvalue problem:
     a serial algorithm will be used


     Parallelization info
     --------------------
     sticks:   dense  smooth     PW     G-vecs:    dense   smooth      PW
     Min         578     289     74               118518    41891    5486
     Max         579     290     75               118533    41932    5497
     Sum       18505    9265   2385              3792731  1341081  175711


     Title: 
     top.O1.Au62.d.3.0.phi.45.psi.90                                            


     bravais-lattice index     =            8
     lattice parameter (alat)  =      24.1233  a.u.
     unit-cell volume          =   28076.2361 (a.u.)^3
     number of atoms/cell      =           75
     number of atomic types    =            3
     number of electrons       =       800.00
     number of Kohn-Sham states=          480
     kinetic-energy cutoff     =      50.0000  Ry
     charge density cutoff     =     400.0000  Ry
     convergence threshold     =      1.0E-08
     mixing beta               =       0.7000
     number of iterations used =            8  plain     mixing
     Exchange-correlation      = VDW-DF ( 1  4  4  0 1 0)

     celldm(1)=  24.123277  celldm(2)=   1.000000  celldm(3)=   2.000000
     celldm(4)=   0.000000  celldm(5)=   0.000000  celldm(6)=   0.000000

     crystal axes: (cart. coord. in units of alat)
               a(1) = (   1.000000   0.000000   0.000000 )  
               a(2) = (   0.000000   1.000000   0.000000 )  
               a(3) = (   0.000000   0.000000   2.000000 )  

     reciprocal axes: (cart. coord. in units 2 pi/alat)
               b(1) = (  1.000000  0.000000  0.000000 )  
               b(2) = (  0.000000  1.000000  0.000000 )  
               b(3) = (  0.000000  0.000000  0.500000 )  


     PseudoPot. # 1 for Au read from file:
     /home/scc/andrejb/qe/pseudo/Au.pbe-nd-van.UPF
     MD5 check sum: 458681b50f36d87ef23c61b04bba420a
     Pseudo is Ultrasoft + core correction, Zval = 11.0
     Generated by new atomic code, or converted to UPF format
     Using radial grid of  985 points,  3 beta functions with: 
                l(1) =   1
                l(2) =   2
                l(3) =   2
     Q(r) pseudized with  8 coefficients,  rinner =    1.100   1.100   1.100
                                                       1.100   1.100

     PseudoPot. # 2 for H  read from file:
     /home/scc/andrejb/qe/pseudo/H.pbe-van_ak.UPF
     MD5 check sum: 403db7282739603aa925980fa9b8608d
     Pseudo is Ultrasoft, Zval =  1.0
     Generated by new atomic code, or converted to UPF format
     Using radial grid of  615 points,  1 beta functions with: 
                l(1) =   0
     Q(r) pseudized with  8 coefficients,  rinner =    0.800

     PseudoPot. # 3 for O  read from file:
     /home/scc/andrejb/qe/pseudo/O.pbe-van_ak.UPF
     MD5 check sum: 4b8c549914a63cae506c6ff22b5af4fe
     Pseudo is Ultrasoft, Zval =  6.0
     Generated by new atomic code, or converted to UPF format
     Using radial grid of  737 points,  4 beta functions with: 
                l(1) =   0
                l(2) =   0
                l(3) =   1
                l(4) =   1
     Q(r) pseudized with  8 coefficients,  rinner =    0.800   0.800   0.800


     vdW kernel table read from file vdW_kernel_table
     MD5 check sum: 48e77a2e26edf626eeb0eaa751ad5cac

     atomic species   valence    mass     pseudopotential
        Au            11.00   196.96657     Au( 1.00)
        H              1.00     1.01000     H ( 1.00)
        O              6.00    16.00000     O ( 1.00)

     No symmetry found



   Cartesian axes

     site n.     atom                  positions (alat units)
         1           O   tau(   1) = (   0.4998324   0.3332216   0.7343272  )
         2           H   tau(   2) = (   0.4942419   0.2877277   0.6733398  )
         3           H   tau(   3) = (   0.5052408   0.2853639   0.7934780  )
         4           Au  tau(   4) = (   0.0000000   0.0000000   0.0000000  )
         5           Au  tau(   5) = (   0.3332217   0.0000000   0.0000000  )
         6           Au  tau(   6) = (   0.6664435   0.0000000   0.0000000  )
         7           Au  tau(   7) = (   0.1666109   0.1666109   0.0000000  )
         8           Au  tau(   8) = (   0.4998326   0.1666109   0.0000000  )
         9           Au  tau(   9) = (   0.8330542   0.1666109   0.0000000  )
        10           Au  tau(  10) = (   0.0000000   0.3332217   0.0000000  )
        11           Au  tau(  11) = (   0.3332217   0.3332217   0.0000000  )
        12           Au  tau(  12) = (   0.6664435   0.3332217   0.0000000  )
        13           Au  tau(  13) = (   0.1666109   0.4998326   0.0000000  )
        14           Au  tau(  14) = (   0.4998326   0.4998326   0.0000000  )
        15           Au  tau(  15) = (   0.8330542   0.4998326   0.0000000  )
        16           Au  tau(  16) = (   0.0000000   0.6664435   0.0000000  )
        17           Au  tau(  17) = (   0.3332217   0.6664435   0.0000000  )
        18           Au  tau(  18) = (   0.6664435   0.6664435   0.0000000  )
        19           Au  tau(  19) = (   0.1666109   0.8330542   0.0000000  )
        20           Au  tau(  20) = (   0.4998326   0.8330542   0.0000000  )
        21           Au  tau(  21) = (   0.8330542   0.8330542   0.0000000  )
        22           Au  tau(  22) = (   0.1666109   0.0000000   0.1666109  )
        23           Au  tau(  23) = (   0.4998326   0.0000000   0.1666109  )
        24           Au  tau(  24) = (   0.8330542   0.0000000   0.1666109  )
        25           Au  tau(  25) = (   0.0000000   0.1666109   0.1666109  )
        26           Au  tau(  26) = (   0.3332217   0.1666109   0.1666109  )
        27           Au  tau(  27) = (   0.6664435   0.1666109   0.1666109  )
        28           Au  tau(  28) = (   0.1666109   0.3332217   0.1666109  )
        29           Au  tau(  29) = (   0.4998326   0.3332217   0.1666109  )
        30           Au  tau(  30) = (   0.8330542   0.3332217   0.1666109  )
        31           Au  tau(  31) = (   0.0000000   0.4998326   0.1666109  )
        32           Au  tau(  32) = (   0.3332217   0.4998326   0.1666109  )
        33           Au  tau(  33) = (   0.6664435   0.4998326   0.1666109  )
        34           Au  tau(  34) = (   0.1666109   0.6664435   0.1666109  )
        35           Au  tau(  35) = (   0.4998326   0.6664435   0.1666109  )
        36           Au  tau(  36) = (   0.8330542   0.6664435   0.1666109  )
        37           Au  tau(  37) = (   0.0000000   0.8330542   0.1666109  )
        38           Au  tau(  38) = (   0.3332217   0.8330542   0.1666109  )
        39           Au  tau(  39) = (   0.6664435   0.8330542   0.1666109  )
        40           Au  tau(  40) = (  -0.0000182  -0.0000182   0.3335478  )
        41           Au  tau(  41) = (   0.3332215  -0.0000181   0.3335472  )
        42           Au  tau(  42) = (   0.6664447  -0.0000183   0.3335481  )
        43           Au  tau(  43) = (  -0.0000181   0.3332215   0.3335472  )
        44           Au  tau(  44) = (   0.3332215   0.3332215   0.3335468  )
        45           Au  tau(  45) = (   0.6664445   0.3332215   0.3335478  )
        46           Au  tau(  46) = (  -0.0000183   0.6664447   0.3335481  )
        47           Au  tau(  47) = (   0.3332215   0.6664445   0.3335478  )
        48           Au  tau(  48) = (   0.6664446   0.6664446   0.3335486  )
        49           Au  tau(  49) = (   0.1666097   0.1666097   0.3335483  )
        50           Au  tau(  50) = (   0.4998320   0.1666098   0.3335477  )
        51           Au  tau(  51) = (   0.8330732   0.1666096   0.3335481  )
        52           Au  tau(  52) = (   0.1666098   0.4998320   0.3335477  )
        53           Au  tau(  53) = (   0.4998321   0.4998321   0.3335470  )
        54           Au  tau(  54) = (   0.8330730   0.4998322   0.3335474  )
        55           Au  tau(  55) = (   0.1666096   0.8330732   0.3335481  )
        56           Au  tau(  56) = (   0.4998322   0.8330730   0.3335474  )
        57           Au  tau(  57) = (   0.8330731   0.8330731   0.3335478  )
        58           Au  tau(  58) = (   0.1666104  -0.0000111   0.4993095  )
        59           Au  tau(  59) = (   0.4998323  -0.0000112   0.4993099  )
        60           Au  tau(  60) = (   0.8330661  -0.0000111   0.4993009  )
        61           Au  tau(  61) = (  -0.0000111   0.1666104   0.4993095  )
        62           Au  tau(  62) = (   0.3332214   0.1666106   0.4993185  )
        63           Au  tau(  63) = (   0.6664437   0.1666106   0.4993187  )
        64           Au  tau(  64) = (   0.1666106   0.3332214   0.4993185  )
        65           Au  tau(  65) = (   0.4998324   0.3332216   0.4993185  )
        66           Au  tau(  66) = (   0.8330659   0.3332215   0.4993103  )
        67           Au  tau(  67) = (  -0.0000112   0.4998323   0.4993099  )
        68           Au  tau(  68) = (   0.3332216   0.4998324   0.4993185  )
        69           Au  tau(  69) = (   0.6664436   0.4998325   0.4993187  )
        70           Au  tau(  70) = (   0.1666106   0.6664437   0.4993187  )
        71           Au  tau(  71) = (   0.4998325   0.6664436   0.4993187  )
        72           Au  tau(  72) = (   0.8330658   0.6664438   0.4993102  )
        73           Au  tau(  73) = (  -0.0000111   0.8330661   0.4993009  )
        74           Au  tau(  74) = (   0.3332215   0.8330659   0.4993103  )
        75           Au  tau(  75) = (   0.6664438   0.8330658   0.4993102  )

     number of k points=     6  Marzari-Vanderbilt smearing, width (Ry)=  0.0200
                       cart. coord. in units 2pi/alat
        k(    1) = (   0.2500000   0.2500000   0.0833333), wk =   0.3333333
        k(    2) = (   0.2500000   0.2500000  -0.2500000), wk =   0.3333333
        k(    3) = (  -0.2500000  -0.2500000   0.0833333), wk =   0.3333333
        k(    4) = (  -0.2500000   0.2500000  -0.0833333), wk =   0.3333333
        k(    5) = (   0.2500000  -0.2500000  -0.0833333), wk =   0.3333333
        k(    6) = (  -0.2500000   0.2500000   0.2500000), wk =   0.3333333

     Dense  grid:  3792731 G-vectors     FFT dimensions: ( 160, 160, 320)

     Smooth grid:  1341081 G-vectors     FFT dimensions: ( 120, 120, 225)

     Largest allocated arrays     est. size (Mb)     dimensions
        Kohn-Sham Wavefunctions        38.58 Mb     (    5267,  480)
        NL pseudopotentials            76.03 Mb     (    5267,  946)
        Each V/rho on FFT grid          3.91 Mb     (  256000)
        Each G-vector array             0.90 Mb     (  118520)
        G-vector shells                 0.08 Mb     (   10286)
     Largest temporary arrays     est. size (Mb)     dimensions
        Auxiliary wavefunctions       154.31 Mb     (    5267, 1920)
        Each subspace H/S matrix       56.25 Mb     (    1920, 1920)
        Each <psi_i|beta_j> matrix      6.93 Mb     (     946,  480)
        Arrays for rho mixing          31.25 Mb     (  256000,    8)

     Initial potential from superposition of free atoms
     Check: negative starting charge=   -1.945119

     starting charge  799.16392, renormalised to  800.00000

     negative rho (up, down):  1.947E+00 0.000E+00


     ************************************************************************
     *
     * You are using vdW-DF for exchange-correlation in this calculation.
     * Please cite the following three references that made this development
     * possible:
     *
     *   M. Dion, H. Rydberg, E. Schroder, D. C. Langreth, and
     *   B. I. Lundqvist, Phys. Rev. Lett. 92, 246401 (2004).
     *
     *   T. Thonhauser, V. R. Cooper, S. Li, A. Puzder, P. Hyldgaard, and
     *   D. C. Langreth, Phys. Rev. B 76, 125112 (2007).
     *
     *   G. Roman-Perez and J. M. Soler, Phys. Rev. Lett. 103, 096102 (2009).
     *
     *
     * If you are using vdW-DF2, please also cite:
     *
     *   K. Lee, E. D. Murray, L. Kong, B. I. Lundqvist, and
     *   D. C. Langreth, Phys. Rev. B 82, 081101(R) (2010).
     *
     *
     * If you are calculating the stress with vdW-DF, please also cite:
     *
     *   R. Sabatini, E. Kucukbenli, B. Kolb, T. Thonhauser, and
     *   S. de Gironcoli, J. Phys.: Condens. Matter 24, 424209 (2012).
     *
     ************************************************************************

     Carrying out vdW-DF run using the following parameters:

     Nqs =      20    Nr_points =    1024   r_max =   100.000
     q_mesh =
               0.00001000     0.04494208     0.09755937     0.15916263
               0.23128650     0.31572767     0.41458969     0.53033537
               0.66584808     0.82450364     1.01025438     1.22772762
               1.48234092     1.78043706     2.12944203     2.53805004
               3.01644009     3.57652955     4.23227104     5.00000000

     Gradients computed in reciprocal space

     ************************************************************************


     Starting wfc are  654 randomized atomic wfcs

     total cpu time spent up to now is      127.9 secs

     Self-consistent Calculation

     iteration #  1     ecut=    50.00 Ry     beta=0.70
     Davidson diagonalization with overlap
     ethr =  1.00E-02,  avg # of iterations =  3.0

     Threshold (ethr) on eigenvalues was too large:
     Diagonalizing with lowered threshold

     Davidson diagonalization with overlap
     ethr =  4.19E-04,  avg # of iterations =  2.0

     negative rho (up, down):  1.947E+00 0.000E+00

     total cpu time spent up to now is      598.8 secs

     total energy              =   -7423.04724810 Ry
     Harris-Foulkes estimate   =   -7426.06093516 Ry
     estimated scf accuracy    <       3.72391649 Ry

     iteration #  2     ecut=    50.00 Ry     beta=0.70
     Davidson diagonalization with overlap
     ethr =  4.65E-04,  avg # of iterations = 11.3

     negative rho (up, down):  1.943E+00 0.000E+00

     total cpu time spent up to now is     1472.9 secs

     total energy              =   -7415.31828314 Ry
     Harris-Foulkes estimate   =   -7432.52714067 Ry
     estimated scf accuracy    <      89.17979545 Ry

     iteration #  3     ecut=    50.00 Ry     beta=0.70
     Davidson diagonalization with overlap
     ethr =  4.65E-04,  avg # of iterations =  6.0

     negative rho (up, down):  1.953E+00 0.000E+00

     total cpu time spent up to now is     2026.7 secs

     total energy              =   -7424.10649129 Ry
     Harris-Foulkes estimate   =   -7425.85625805 Ry
     estimated scf accuracy    <       7.30877195 Ry

     iteration #  4     ecut=    50.00 Ry     beta=0.70
     Davidson diagonalization with overlap
     ethr =  4.65E-04,  avg # of iterations =  4.7

     negative rho (up, down):  1.956E+00 0.000E+00

     total cpu time spent up to now is     2321.9 secs

     total energy              =   -7424.88576361 Ry
     Harris-Foulkes estimate   =   -7425.62048991 Ry
     estimated scf accuracy    <       3.64253065 Ry

     iteration #  5     ecut=    50.00 Ry     beta=0.70
     Davidson diagonalization with overlap
     ethr =  4.55E-04,  avg # of iterations =  7.5

     negative rho (up, down):  1.963E+00 0.000E+00

     total cpu time spent up to now is     2641.9 secs

     total energy              =   -7425.04154450 Ry
     Harris-Foulkes estimate   =   -7425.59172141 Ry
     estimated scf accuracy    <       4.31885691 Ry

     iteration #  6     ecut=    50.00 Ry     beta=0.70
     Davidson diagonalization with overlap
     ethr =  4.55E-04,  avg # of iterations =  5.0

     negative rho (up, down):  1.967E+00 0.000E+00

     total cpu time spent up to now is     2938.3 secs

     total energy              =   -7425.27144792 Ry
     Harris-Foulkes estimate   =   -7425.32690951 Ry
     estimated scf accuracy    <       0.19707937 Ry

     iteration #  7     ecut=    50.00 Ry     beta=0.70
     Davidson diagonalization with overlap
     ethr =  2.46E-05,  avg # of iterations =  6.0

     negative rho (up, down):  1.970E+00 0.000E+00

     total cpu time spent up to now is     3282.6 secs

     total energy              =   -7425.27501971 Ry
     Harris-Foulkes estimate   =   -7425.32153032 Ry
     estimated scf accuracy    <       0.24157150 Ry

     iteration #  8     ecut=    50.00 Ry     beta=0.70
     Davidson diagonalization with overlap
     ethr =  2.46E-05,  avg # of iterations =  3.0

     negative rho (up, down):  1.971E+00 0.000E+00

     total cpu time spent up to now is     3560.4 secs

     total energy              =   -7425.28364806 Ry
     Harris-Foulkes estimate   =   -7425.30293227 Ry
     estimated scf accuracy    <       0.08288835 Ry

     iteration #  9     ecut=    50.00 Ry     beta=0.70
     Davidson diagonalization with overlap
     ethr =  1.04E-05,  avg # of iterations =  8.7

     negative rho (up, down):  1.972E+00 0.000E+00

     total cpu time spent up to now is     3898.0 secs

     total energy              =   -7425.28420844 Ry
     Harris-Foulkes estimate   =   -7425.29493786 Ry
     estimated scf accuracy    <       0.03757865 Ry

     iteration # 10     ecut=    50.00 Ry     beta=0.70
     Davidson diagonalization with overlap
     ethr =  4.70E-06,  avg # of iterations =  5.5

     negative rho (up, down):  1.973E+00 0.000E+00

     total cpu time spent up to now is     4205.4 secs

     total energy              =   -7425.28526063 Ry
     Harris-Foulkes estimate   =   -7425.28872188 Ry
     estimated scf accuracy    <       0.01060013 Ry

     iteration # 11     ecut=    50.00 Ry     beta=0.70
     Davidson diagonalization with overlap
     ethr =  1.33E-06,  avg # of iterations =  9.2

     negative rho (up, down):  1.974E+00 0.000E+00

     total cpu time spent up to now is     4546.0 secs

     total energy              =   -7425.28552343 Ry
     Harris-Foulkes estimate   =   -7425.28685830 Ry
     estimated scf accuracy    <       0.00457977 Ry

     iteration # 12     ecut=    50.00 Ry     beta=0.70
     Davidson diagonalization with overlap
     ethr =  5.72E-07,  avg # of iterations =  3.0

     negative rho (up, down):  1.974E+00 0.000E+00

     total cpu time spent up to now is     4817.9 secs

     total energy              =   -7425.28493906 Ry
     Harris-Foulkes estimate   =   -7425.28602186 Ry
     estimated scf accuracy    <       0.00165503 Ry

     iteration # 13     ecut=    50.00 Ry     beta=0.70
     Davidson diagonalization with overlap
     ethr =  2.07E-07,  avg # of iterations =  7.8

     negative rho (up, down):  1.974E+00 0.000E+00

     total cpu time spent up to now is     5312.0 secs

     total energy              =   -7425.28411198 Ry
     Harris-Foulkes estimate   =   -7425.28693202 Ry
     estimated scf accuracy    <       0.01406221 Ry

     iteration # 14     ecut=    50.00 Ry     beta=0.70
     Davidson diagonalization with overlap
     ethr =  2.07E-07,  avg # of iterations =  3.0

     negative rho (up, down):  1.974E+00 0.000E+00

     total cpu time spent up to now is     5642.0 secs

     total energy              =   -7425.28535199 Ry
     Harris-Foulkes estimate   =   -7425.28564994 Ry
     estimated scf accuracy    <       0.00124978 Ry

     iteration # 15     ecut=    50.00 Ry     beta=0.70
     Davidson diagonalization with overlap
     ethr =  1.56E-07,  avg # of iterations =  2.0

     negative rho (up, down):  1.974E+00 0.000E+00

     total cpu time spent up to now is     5898.1 secs

     total energy              =   -7425.28539184 Ry
     Harris-Foulkes estimate   =   -7425.28560453 Ry
     estimated scf accuracy    <       0.00116186 Ry

     iteration # 16     ecut=    50.00 Ry     beta=0.70
     Davidson diagonalization with overlap
     ethr =  1.45E-07,  avg # of iterations =  1.0

     negative rho (up, down):  1.974E+00 0.000E+00

     total cpu time spent up to now is     6141.3 secs

     total energy              =   -7425.28544654 Ry
     Harris-Foulkes estimate   =   -7425.28561585 Ry
     estimated scf accuracy    <       0.00133327 Ry

     iteration # 17     ecut=    50.00 Ry     beta=0.70
     Davidson diagonalization with overlap
     ethr =  1.45E-07,  avg # of iterations =  1.0

     negative rho (up, down):  1.974E+00 0.000E+00

     total cpu time spent up to now is     6390.1 secs

     total energy              =   -7425.28551313 Ry
     Harris-Foulkes estimate   =   -7425.28554490 Ry
     estimated scf accuracy    <       0.00012239 Ry

     iteration # 18     ecut=    50.00 Ry     beta=0.70
     Davidson diagonalization with overlap
     ethr =  1.53E-08,  avg # of iterations =  2.0

     negative rho (up, down):  1.974E+00 0.000E+00

     total cpu time spent up to now is     6634.2 secs

     total energy              =   -7425.28552746 Ry
     Harris-Foulkes estimate   =   -7425.28553569 Ry
     estimated scf accuracy    <       0.00003620 Ry

     iteration # 19     ecut=    50.00 Ry     beta=0.70
     Davidson diagonalization with overlap
     ethr =  4.52E-09,  avg # of iterations =  2.0

     negative rho (up, down):  1.974E+00 0.000E+00

     total cpu time spent up to now is     6865.9 secs

     total energy              =   -7425.28553039 Ry
     Harris-Foulkes estimate   =   -7425.28553388 Ry
     estimated scf accuracy    <       0.00001385 Ry

     iteration # 20     ecut=    50.00 Ry     beta=0.70
     Davidson diagonalization with overlap
     ethr =  1.73E-09,  avg # of iterations =  2.0

     negative rho (up, down):  1.974E+00 0.000E+00

     total cpu time spent up to now is     7123.9 secs

     total energy              =   -7425.28553180 Ry
     Harris-Foulkes estimate   =   -7425.28553308 Ry
     estimated scf accuracy    <       0.00000444 Ry

     iteration # 21     ecut=    50.00 Ry     beta=0.70
     Davidson diagonalization with overlap
     ethr =  5.55E-10,  avg # of iterations =  2.0

     negative rho (up, down):  1.974E+00 0.000E+00

     total cpu time spent up to now is     7374.9 secs

     total energy              =   -7425.28553247 Ry
     Harris-Foulkes estimate   =   -7425.28553263 Ry
     estimated scf accuracy    <       0.00000071 Ry

     iteration # 22     ecut=    50.00 Ry     beta=0.70
     Davidson diagonalization with overlap
     ethr =  8.93E-11,  avg # of iterations =  3.0

     negative rho (up, down):  1.974E+00 0.000E+00

     total cpu time spent up to now is     7659.3 secs

     total energy              =   -7425.28553263 Ry
     Harris-Foulkes estimate   =   -7425.28553270 Ry
     estimated scf accuracy    <       0.00000038 Ry

     iteration # 23     ecut=    50.00 Ry     beta=0.70
     Davidson diagonalization with overlap
     ethr =  4.73E-11,  avg # of iterations =  3.0

     negative rho (up, down):  1.974E+00 0.000E+00

     total cpu time spent up to now is     7935.3 secs

     total energy              =   -7425.28553266 Ry
     Harris-Foulkes estimate   =   -7425.28553271 Ry
     estimated scf accuracy    <       0.00000017 Ry

     iteration # 24     ecut=    50.00 Ry     beta=0.70
     Davidson diagonalization with overlap
     ethr =  2.15E-11,  avg # of iterations =  2.0

     negative rho (up, down):  1.974E+00 0.000E+00

     total cpu time spent up to now is     8180.4 secs

     total energy              =   -7425.28553269 Ry
     Harris-Foulkes estimate   =   -7425.28553271 Ry
     estimated scf accuracy    <       0.00000018 Ry

     iteration # 25     ecut=    50.00 Ry     beta=0.70
     Davidson diagonalization with overlap
     ethr =  2.15E-11,  avg # of iterations =  2.0

     negative rho (up, down):  1.974E+00 0.000E+00

     total cpu time spent up to now is     8442.6 secs

     total energy              =   -7425.28553271 Ry
     Harris-Foulkes estimate   =   -7425.28553272 Ry
     estimated scf accuracy    <       0.00000006 Ry

     iteration # 26     ecut=    50.00 Ry     beta=0.70
     Davidson diagonalization with overlap
     ethr =  7.37E-12,  avg # of iterations =  2.0

     negative rho (up, down):  1.974E+00 0.000E+00

     total cpu time spent up to now is     8687.3 secs

     total energy              =   -7425.28553272 Ry
     Harris-Foulkes estimate   =   -7425.28553272 Ry
     estimated scf accuracy    <       0.00000008 Ry

     iteration # 27     ecut=    50.00 Ry     beta=0.70
     Davidson diagonalization with overlap
     ethr =  7.37E-12,  avg # of iterations =  1.7

     negative rho (up, down):  1.974E+00 0.000E+00

     total cpu time spent up to now is     8920.3 secs

     total energy              =   -7425.28553272 Ry
     Harris-Foulkes estimate   =   -7425.28553273 Ry
     estimated scf accuracy    <       0.00000003 Ry

     iteration # 28     ecut=    50.00 Ry     beta=0.70
     Davidson diagonalization with overlap
     ethr =  3.83E-12,  avg # of iterations =  2.0

     negative rho (up, down):  1.974E+00 0.000E+00

     total cpu time spent up to now is     9179.1 secs

     total energy              =   -7425.28553272 Ry
     Harris-Foulkes estimate   =   -7425.28553273 Ry
     estimated scf accuracy    <       0.00000003 Ry

     iteration # 29     ecut=    50.00 Ry     beta=0.70
     Davidson diagonalization with overlap
     ethr =  3.67E-12,  avg # of iterations =  2.0

     negative rho (up, down):  1.974E+00 0.000E+00

     total cpu time spent up to now is     9425.0 secs

     End of self-consistent calculation

          k = 0.2500 0.2500 0.0833 (167653 PWs)   bands (ev):

   -19.3319  -7.3125  -6.8327  -6.3059  -6.3049  -5.8763  -5.4668  -5.3745
    -5.3739  -5.1788  -5.1779  -5.0606  -5.0594  -4.9821  -4.9588  -4.8861
    -4.8015  -4.7973  -4.7586  -4.7581  -4.5982  -4.5809  -4.5804  -4.5792
    -4.5725  -4.5172  -4.5166  -4.5054  -4.5045  -4.4680  -4.4557  -4.4546
    -4.4132  -4.4130  -4.3800  -4.3787  -4.3281  -4.3258  -4.3164  -4.3147
    -4.3091  -4.2959  -4.2958  -4.2555  -4.2372  -4.2364  -4.2296  -4.2292
    -4.1977  -4.1482  -4.1327  -4.1318  -4.1302  -4.1278  -4.1203  -4.1152
    -4.1150  -4.1140  -4.0516  -4.0487  -4.0005  -3.9988  -3.9875  -3.9619
    -3.9611  -3.9420  -3.9382  -3.9376  -3.9343  -3.9311  -3.8823  -3.8814
    -3.8695  -3.8682  -3.7653  -3.7628  -3.7603  -3.7564  -3.7195  -3.7136
    -3.6960  -3.6680  -3.6662  -3.6382  -3.6370  -3.6195  -3.6158  -3.6040
    -3.6017  -3.5503  -3.5469  -3.5392  -3.5132  -3.5090  -3.5022  -3.5001
    -3.4993  -3.4768  -3.4717  -3.4444  -3.4349  -3.4246  -3.4142  -3.4000
    -3.3803  -3.3722  -3.3624  -3.3336  -3.3308  -3.2973  -3.2960  -3.2596
    -3.2529  -3.2522  -3.2384  -3.2359  -3.2332  -3.2327  -3.1963  -3.1843
    -3.1446  -3.1439  -3.1357  -3.1265  -3.1262  -3.1243  -3.1005  -3.1003
    -3.0800  -3.0791  -3.0774  -3.0516  -3.0510  -3.0437  -3.0410  -3.0398
    -3.0044  -3.0015  -2.9664  -2.9644  -2.9640  -2.9618  -2.9606  -2.8815
    -2.8720  -2.8693  -2.8672  -2.8666  -2.8654  -2.8624  -2.8607  -2.8598
    -2.8595  -2.8504  -2.8426  -2.8269  -2.8233  -2.8222  -2.8213  -2.8079
    -2.8033  -2.7657  -2.7649  -2.7640  -2.7602  -2.7589  -2.7418  -2.7408
    -2.7331  -2.7324  -2.7298  -2.6718  -2.6707  -2.6656  -2.6650  -2.6608
    -2.6595  -2.6323  -2.5731  -2.5727  -2.5717  -2.5689  -2.5581  -2.5563
    -2.5515  -2.5417  -2.5398  -2.5064  -2.5023  -2.4965  -2.4957  -2.4929
    -2.4925  -2.4553  -2.4539  -2.4451  -2.4434  -2.4425  -2.4412  -2.3995
    -2.3839  -2.3796  -2.3261  -2.3242  -2.3089  -2.3059  -2.2998  -2.2986
    -2.2529  -2.2494  -2.2274  -2.2136  -2.1988  -2.1969  -2.1947  -2.1745
    -2.1730  -2.1641  -2.1475  -2.1120  -2.1066  -2.0953  -2.0914  -2.0901
    -2.0828  -2.0802  -2.0713  -2.0650  -2.0640  -2.0606  -2.0573  -2.0547
    -2.0535  -2.0447  -2.0423  -2.0262  -2.0242  -2.0228  -2.0171  -2.0143
    -2.0125  -1.9914  -1.9889  -1.9784  -1.9768  -1.9716  -1.9701  -1.9329
    -1.9003  -1.8988  -1.8637  -1.8486  -1.8469  -1.8407  -1.8339  -1.8156
    -1.8115  -1.8014  -1.7963  -1.7958  -1.7944  -1.7941  -1.7903  -1.7599
    -1.7589  -1.7584  -1.7146  -1.7130  -1.6758  -1.6719  -1.6279  -1.6257
    -1.6136  -1.5916  -1.5869  -1.5832  -1.5752  -1.5668  -1.5536  -1.5479
    -1.5461  -1.5432  -1.5412  -1.5408  -1.5391  -1.5378  -1.5195  -1.5166
    -1.5061  -1.4900  -1.4756  -1.4718  -1.4533  -1.4453  -1.4414  -1.4400
    -1.4397  -1.4344  -1.4200  -1.4114  -1.4029  -1.3961  -1.3860  -1.3754
    -1.3648  -1.3603  -1.3397  -1.3309  -1.3263  -1.3216  -1.3100  -1.2873
    -1.2816  -1.2769  -1.2762  -1.2690  -1.2629  -1.2481  -1.2457  -1.2356
    -1.2287  -1.2260  -1.2168  -1.2140  -1.2130  -1.2078  -1.2000  -1.1892
    -1.1852  -1.1813  -1.1800  -1.1680  -1.1646  -1.1582  -1.1575  -1.1177
    -1.1155  -1.1118  -1.1087  -1.1080  -1.1064  -1.0696  -1.0525  -1.0509
    -1.0504  -1.0496  -1.0456  -1.0415  -1.0407  -1.0284  -1.0260  -0.9903
    -0.9893  -0.9825  -0.9819  -0.9603  -0.9591  -0.9497  -0.9207  -0.9123
    -0.8866  -0.8838  -0.8575  -0.8568  -0.8535  -0.8533  -0.8513  -0.8469
    -0.8429  -0.8426  -0.8390  -0.8371  -0.8065  -0.8053  -0.7870  -0.7843
    -0.7834  -0.7811  -0.7795  -0.7777  -0.7617  -0.4875  -0.4750  -0.4181
    -0.4145  -0.3801  -0.2192  -0.1551  -0.1535  -0.1193   0.1653   0.1663
     0.4956   0.4987   0.5932   0.5944   0.6341   0.6367   0.7801   0.7813
     0.9023   0.9051   0.9969   1.5906   1.6076   1.6092   1.6466   1.6534
     1.6982   1.7073   1.7784   1.7801   1.9842   1.9864   2.2236   2.2988
     2.3039   2.3171   2.6965   2.7041   2.7698   2.7717   2.7779   2.7798
     2.9288   2.9307   2.9850   3.0744   3.0772   3.3042   3.3077   3.4390
     3.4655   3.4690   3.7385   3.7406   3.8519   3.8701   3.8718   3.9361
     3.9630   4.0549   4.0595   4.2917   4.2954   4.3820   4.3892   4.5047
     4.5109   4.5282   4.5381   4.6882   5.0983   5.3403   5.3526   5.4337
     5.4409   5.5219   5.6168   5.6207   5.6634   5.7033   5.7314   5.7374
     5.7518   5.7844   5.7887   5.8334   6.0087   6.0869   6.0994   6.1067
     6.1209   6.1300   6.1327   6.1366   6.1402   6.1425   6.1892   6.2206

          k = 0.2500 0.2500-0.2500 (167588 PWs)   bands (ev):

   -19.3319  -7.3125  -6.8327  -6.3059  -6.3049  -5.8763  -5.4668  -5.3745
    -5.3739  -5.1788  -5.1779  -5.0606  -5.0594  -4.9821  -4.9588  -4.8861
    -4.8015  -4.7973  -4.7586  -4.7581  -4.5982  -4.5809  -4.5804  -4.5792
    -4.5726  -4.5172  -4.5166  -4.5054  -4.5045  -4.4680  -4.4557  -4.4546
    -4.4132  -4.4130  -4.3800  -4.3787  -4.3281  -4.3258  -4.3164  -4.3147
    -4.3091  -4.2959  -4.2958  -4.2555  -4.2372  -4.2364  -4.2296  -4.2292
    -4.1977  -4.1482  -4.1327  -4.1318  -4.1302  -4.1278  -4.1203  -4.1152
    -4.1150  -4.1140  -4.0516  -4.0487  -4.0005  -3.9988  -3.9875  -3.9619
    -3.9611  -3.9420  -3.9382  -3.9376  -3.9343  -3.9311  -3.8823  -3.8814
    -3.8695  -3.8682  -3.7653  -3.7628  -3.7603  -3.7564  -3.7195  -3.7136
    -3.6960  -3.6680  -3.6662  -3.6382  -3.6370  -3.6195  -3.6158  -3.6040
    -3.6017  -3.5503  -3.5469  -3.5392  -3.5132  -3.5090  -3.5022  -3.5001
    -3.4993  -3.4768  -3.4717  -3.4444  -3.4348  -3.4246  -3.4142  -3.4000
    -3.3803  -3.3722  -3.3624  -3.3336  -3.3308  -3.2973  -3.2959  -3.2596
    -3.2529  -3.2522  -3.2384  -3.2359  -3.2332  -3.2327  -3.1963  -3.1843
    -3.1446  -3.1439  -3.1357  -3.1265  -3.1262  -3.1243  -3.1005  -3.1003
    -3.0800  -3.0791  -3.0774  -3.0516  -3.0509  -3.0437  -3.0410  -3.0398
    -3.0044  -3.0015  -2.9664  -2.9644  -2.9640  -2.9618  -2.9606  -2.8815
    -2.8720  -2.8693  -2.8672  -2.8666  -2.8654  -2.8624  -2.8607  -2.8598
    -2.8595  -2.8504  -2.8426  -2.8269  -2.8233  -2.8222  -2.8213  -2.8079
    -2.8033  -2.7657  -2.7649  -2.7639  -2.7602  -2.7589  -2.7418  -2.7408
    -2.7331  -2.7324  -2.7298  -2.6718  -2.6707  -2.6656  -2.6650  -2.6607
    -2.6595  -2.6323  -2.5731  -2.5727  -2.5717  -2.5689  -2.5581  -2.5563
    -2.5515  -2.5417  -2.5398  -2.5063  -2.5023  -2.4965  -2.4957  -2.4929
    -2.4925  -2.4553  -2.4539  -2.4451  -2.4434  -2.4425  -2.4412  -2.3995
    -2.3839  -2.3796  -2.3261  -2.3242  -2.3089  -2.3059  -2.2998  -2.2986
    -2.2529  -2.2494  -2.2274  -2.2136  -2.1988  -2.1969  -2.1947  -2.1745
    -2.1730  -2.1641  -2.1475  -2.1120  -2.1066  -2.0953  -2.0914  -2.0901
    -2.0827  -2.0802  -2.0713  -2.0650  -2.0640  -2.0606  -2.0573  -2.0547
    -2.0535  -2.0447  -2.0423  -2.0262  -2.0242  -2.0228  -2.0171  -2.0143
    -2.0125  -1.9914  -1.9889  -1.9784  -1.9768  -1.9716  -1.9701  -1.9329
    -1.9003  -1.8988  -1.8637  -1.8486  -1.8469  -1.8407  -1.8338  -1.8156
    -1.8115  -1.8014  -1.7963  -1.7958  -1.7944  -1.7941  -1.7903  -1.7599
    -1.7589  -1.7584  -1.7146  -1.7130  -1.6758  -1.6719  -1.6279  -1.6257
    -1.6136  -1.5916  -1.5869  -1.5832  -1.5752  -1.5668  -1.5536  -1.5479
    -1.5461  -1.5432  -1.5412  -1.5408  -1.5391  -1.5378  -1.5195  -1.5166
    -1.5061  -1.4900  -1.4756  -1.4718  -1.4533  -1.4453  -1.4414  -1.4400
    -1.4397  -1.4344  -1.4200  -1.4114  -1.4029  -1.3961  -1.3860  -1.3754
    -1.3648  -1.3603  -1.3397  -1.3309  -1.3263  -1.3216  -1.3100  -1.2872
    -1.2816  -1.2769  -1.2762  -1.2690  -1.2629  -1.2481  -1.2457  -1.2355
    -1.2287  -1.2260  -1.2168  -1.2140  -1.2130  -1.2078  -1.2000  -1.1892
    -1.1852  -1.1813  -1.1800  -1.1680  -1.1646  -1.1582  -1.1575  -1.1177
    -1.1155  -1.1118  -1.1087  -1.1080  -1.1064  -1.0696  -1.0525  -1.0509
    -1.0504  -1.0496  -1.0456  -1.0415  -1.0407  -1.0284  -1.0260  -0.9903
    -0.9893  -0.9825  -0.9819  -0.9603  -0.9591  -0.9497  -0.9207  -0.9123
    -0.8866  -0.8838  -0.8575  -0.8568  -0.8535  -0.8533  -0.8513  -0.8469
    -0.8429  -0.8426  -0.8390  -0.8371  -0.8065  -0.8053  -0.7870  -0.7843
    -0.7834  -0.7811  -0.7795  -0.7777  -0.7617  -0.4875  -0.4750  -0.4181
    -0.4145  -0.3801  -0.2192  -0.1551  -0.1535  -0.1193   0.1653   0.1663
     0.4955   0.4987   0.5932   0.5944   0.6341   0.6367   0.7801   0.7813
     0.9023   0.9051   0.9969   1.5906   1.6076   1.6092   1.6466   1.6534
     1.6982   1.7073   1.7784   1.7801   1.9842   1.9864   2.2236   2.2988
     2.3039   2.3171   2.6965   2.7041   2.7698   2.7717   2.7779   2.7798
     2.9288   2.9307   2.9850   3.0744   3.0773   3.3042   3.3077   3.4390
     3.4655   3.4690   3.7385   3.7406   3.8519   3.8701   3.8718   3.9362
     3.9630   4.0549   4.0595   4.2917   4.2954   4.3820   4.3892   4.5047
     4.5109   4.5282   4.5381   4.6883   5.0903   5.3375   5.3501   5.4335
     5.4399   5.5212   5.6175   5.6207   5.6781   5.7202   5.7338   5.7408
     5.7566   5.7853   5.7887   5.8334   6.0447   6.0736   6.0974   6.1068
     6.1222   6.1269   6.1322   6.1391   6.1398   6.1445   6.2014   6.2321

          k =-0.2500-0.2500 0.0833 (167653 PWs)   bands (ev):

   -19.3319  -7.3125  -6.8327  -6.3059  -6.3049  -5.8763  -5.4668  -5.3745
    -5.3739  -5.1788  -5.1779  -5.0606  -5.0594  -4.9821  -4.9588  -4.8861
    -4.8015  -4.7973  -4.7586  -4.7581  -4.5982  -4.5809  -4.5804  -4.5792
    -4.5725  -4.5172  -4.5166  -4.5054  -4.5045  -4.4680  -4.4557  -4.4546
    -4.4132  -4.4130  -4.3800  -4.3787  -4.3281  -4.3258  -4.3164  -4.3147
    -4.3091  -4.2959  -4.2958  -4.2555  -4.2372  -4.2364  -4.2296  -4.2292
    -4.1977  -4.1482  -4.1327  -4.1318  -4.1302  -4.1278  -4.1203  -4.1152
    -4.1150  -4.1140  -4.0516  -4.0487  -4.0005  -3.9988  -3.9875  -3.9619
    -3.9611  -3.9420  -3.9382  -3.9376  -3.9343  -3.9311  -3.8823  -3.8814
    -3.8695  -3.8682  -3.7653  -3.7628  -3.7603  -3.7564  -3.7195  -3.7136
    -3.6960  -3.6680  -3.6662  -3.6382  -3.6370  -3.6195  -3.6158  -3.6040
    -3.6017  -3.5503  -3.5469  -3.5392  -3.5132  -3.5090  -3.5022  -3.5001
    -3.4993  -3.4768  -3.4717  -3.4444  -3.4349  -3.4246  -3.4142  -3.4000
    -3.3803  -3.3722  -3.3624  -3.3336  -3.3308  -3.2973  -3.2960  -3.2596
    -3.2529  -3.2522  -3.2384  -3.2359  -3.2332  -3.2327  -3.1963  -3.1843
    -3.1446  -3.1439  -3.1357  -3.1265  -3.1262  -3.1243  -3.1005  -3.1003
    -3.0800  -3.0791  -3.0774  -3.0516  -3.0510  -3.0437  -3.0410  -3.0398
    -3.0044  -3.0015  -2.9664  -2.9644  -2.9640  -2.9618  -2.9606  -2.8815
    -2.8720  -2.8693  -2.8672  -2.8666  -2.8654  -2.8624  -2.8607  -2.8598
    -2.8595  -2.8504  -2.8426  -2.8269  -2.8233  -2.8222  -2.8213  -2.8079
    -2.8033  -2.7657  -2.7649  -2.7640  -2.7602  -2.7589  -2.7418  -2.7408
    -2.7331  -2.7324  -2.7298  -2.6718  -2.6707  -2.6656  -2.6650  -2.6608
    -2.6595  -2.6323  -2.5731  -2.5727  -2.5717  -2.5689  -2.5581  -2.5563
    -2.5515  -2.5417  -2.5398  -2.5064  -2.5023  -2.4965  -2.4957  -2.4929
    -2.4925  -2.4553  -2.4539  -2.4451  -2.4434  -2.4425  -2.4412  -2.3995
    -2.3839  -2.3796  -2.3261  -2.3242  -2.3089  -2.3059  -2.2998  -2.2986
    -2.2529  -2.2494  -2.2274  -2.2136  -2.1988  -2.1969  -2.1947  -2.1745
    -2.1730  -2.1641  -2.1475  -2.1120  -2.1066  -2.0953  -2.0914  -2.0901
    -2.0828  -2.0802  -2.0713  -2.0650  -2.0640  -2.0606  -2.0573  -2.0547
    -2.0535  -2.0447  -2.0423  -2.0262  -2.0242  -2.0228  -2.0171  -2.0143
    -2.0125  -1.9914  -1.9889  -1.9784  -1.9768  -1.9716  -1.9701  -1.9329
    -1.9003  -1.8988  -1.8637  -1.8486  -1.8469  -1.8407  -1.8339  -1.8156
    -1.8115  -1.8014  -1.7963  -1.7958  -1.7944  -1.7941  -1.7903  -1.7599
    -1.7589  -1.7584  -1.7146  -1.7130  -1.6758  -1.6719  -1.6279  -1.6257
    -1.6136  -1.5916  -1.5869  -1.5832  -1.5752  -1.5668  -1.5536  -1.5479
    -1.5461  -1.5432  -1.5412  -1.5408  -1.5391  -1.5378  -1.5195  -1.5166
    -1.5061  -1.4900  -1.4756  -1.4718  -1.4533  -1.4453  -1.4414  -1.4400
    -1.4397  -1.4344  -1.4200  -1.4114  -1.4029  -1.3961  -1.3860  -1.3754
    -1.3648  -1.3603  -1.3397  -1.3309  -1.3263  -1.3216  -1.3100  -1.2873
    -1.2816  -1.2769  -1.2762  -1.2690  -1.2629  -1.2481  -1.2457  -1.2356
    -1.2287  -1.2260  -1.2168  -1.2140  -1.2130  -1.2078  -1.2000  -1.1892
    -1.1852  -1.1813  -1.1800  -1.1680  -1.1646  -1.1582  -1.1575  -1.1177
    -1.1155  -1.1118  -1.1087  -1.1080  -1.1064  -1.0696  -1.0525  -1.0509
    -1.0504  -1.0496  -1.0456  -1.0415  -1.0407  -1.0284  -1.0260  -0.9903
    -0.9893  -0.9825  -0.9819  -0.9603  -0.9591  -0.9497  -0.9207  -0.9123
    -0.8866  -0.8838  -0.8575  -0.8568  -0.8535  -0.8533  -0.8513  -0.8469
    -0.8429  -0.8426  -0.8390  -0.8371  -0.8065  -0.8053  -0.7870  -0.7843
    -0.7834  -0.7811  -0.7795  -0.7777  -0.7617  -0.4875  -0.4750  -0.4181
    -0.4145  -0.3801  -0.2192  -0.1551  -0.1535  -0.1193   0.1653   0.1663
     0.4956   0.4987   0.5932   0.5944   0.6341   0.6367   0.7801   0.7813
     0.9023   0.9051   0.9969   1.5906   1.6076   1.6092   1.6466   1.6534
     1.6982   1.7073   1.7784   1.7801   1.9842   1.9864   2.2236   2.2988
     2.3039   2.3171   2.6965   2.7041   2.7698   2.7717   2.7779   2.7798
     2.9288   2.9307   2.9850   3.0744   3.0772   3.3042   3.3077   3.4390
     3.4655   3.4690   3.7385   3.7406   3.8519   3.8701   3.8718   3.9361
     3.9630   4.0549   4.0595   4.2918   4.2954   4.3820   4.3892   4.5047
     4.5109   4.5282   4.5381   4.6882   5.0980   5.3403   5.3538   5.4337
     5.4408   5.5179   5.6164   5.6207   5.6669   5.7061   5.7310   5.7375
     5.7523   5.7847   5.7887   5.8336   6.0101   6.0864   6.0984   6.1069
     6.1229   6.1295   6.1331   6.1352   6.1401   6.1415   6.1792   6.2155

          k =-0.2500 0.2500-0.0833 (167653 PWs)   bands (ev):

   -19.3319  -7.3125  -6.8327  -6.3060  -6.3049  -5.8763  -5.4668  -5.3745
    -5.3738  -5.1788  -5.1779  -5.0607  -5.0594  -4.9821  -4.9588  -4.8861
    -4.8015  -4.7973  -4.7586  -4.7581  -4.5982  -4.5809  -4.5803  -4.5792
    -4.5725  -4.5172  -4.5166  -4.5053  -4.5046  -4.4680  -4.4557  -4.4546
    -4.4132  -4.4130  -4.3800  -4.3787  -4.3280  -4.3259  -4.3165  -4.3147
    -4.3091  -4.2959  -4.2958  -4.2556  -4.2371  -4.2364  -4.2296  -4.2293
    -4.1977  -4.1483  -4.1327  -4.1318  -4.1299  -4.1279  -4.1203  -4.1153
    -4.1151  -4.1140  -4.0515  -4.0487  -4.0006  -3.9988  -3.9875  -3.9618
    -3.9611  -3.9419  -3.9380  -3.9377  -3.9345  -3.9310  -3.8824  -3.8814
    -3.8695  -3.8682  -3.7652  -3.7628  -3.7600  -3.7564  -3.7196  -3.7136
    -3.6960  -3.6681  -3.6662  -3.6382  -3.6370  -3.6192  -3.6158  -3.6041
    -3.6017  -3.5504  -3.5469  -3.5408  -3.5131  -3.5088  -3.5020  -3.4999
    -3.4994  -3.4761  -3.4717  -3.4451  -3.4349  -3.4240  -3.4139  -3.4005
    -3.3801  -3.3726  -3.3624  -3.3336  -3.3299  -3.2973  -3.2960  -3.2598
    -3.2529  -3.2522  -3.2384  -3.2363  -3.2332  -3.2327  -3.1963  -3.1843
    -3.1446  -3.1439  -3.1357  -3.1269  -3.1255  -3.1245  -3.1005  -3.1003
    -3.0800  -3.0791  -3.0775  -3.0515  -3.0509  -3.0437  -3.0409  -3.0398
    -3.0043  -3.0015  -2.9665  -2.9645  -2.9640  -2.9618  -2.9606  -2.8815
    -2.8720  -2.8692  -2.8672  -2.8667  -2.8654  -2.8622  -2.8607  -2.8598
    -2.8595  -2.8504  -2.8426  -2.8269  -2.8232  -2.8222  -2.8213  -2.8078
    -2.8031  -2.7658  -2.7647  -2.7641  -2.7602  -2.7589  -2.7418  -2.7408
    -2.7331  -2.7324  -2.7297  -2.6719  -2.6707  -2.6655  -2.6649  -2.6606
    -2.6596  -2.6323  -2.5733  -2.5725  -2.5717  -2.5690  -2.5581  -2.5563
    -2.5515  -2.5417  -2.5398  -2.5065  -2.5023  -2.4967  -2.4954  -2.4931
    -2.4924  -2.4554  -2.4539  -2.4451  -2.4435  -2.4424  -2.4413  -2.3995
    -2.3838  -2.3797  -2.3261  -2.3243  -2.3089  -2.3058  -2.2998  -2.2987
    -2.2529  -2.2494  -2.2274  -2.2135  -2.1989  -2.1969  -2.1947  -2.1745
    -2.1730  -2.1641  -2.1474  -2.1117  -2.1066  -2.0953  -2.0916  -2.0901
    -2.0827  -2.0802  -2.0712  -2.0649  -2.0639  -2.0606  -2.0573  -2.0547
    -2.0535  -2.0446  -2.0424  -2.0262  -2.0242  -2.0227  -2.0171  -2.0143
    -2.0125  -1.9913  -1.9890  -1.9784  -1.9768  -1.9715  -1.9702  -1.9329
    -1.9003  -1.8988  -1.8637  -1.8484  -1.8469  -1.8404  -1.8340  -1.8156
    -1.8116  -1.8012  -1.7963  -1.7955  -1.7944  -1.7943  -1.7905  -1.7600
    -1.7588  -1.7583  -1.7147  -1.7131  -1.6757  -1.6719  -1.6280  -1.6258
    -1.6135  -1.5914  -1.5871  -1.5833  -1.5761  -1.5666  -1.5542  -1.5468
    -1.5461  -1.5433  -1.5412  -1.5407  -1.5390  -1.5378  -1.5193  -1.5167
    -1.5060  -1.4900  -1.4756  -1.4717  -1.4547  -1.4446  -1.4415  -1.4402
    -1.4395  -1.4341  -1.4187  -1.4124  -1.4022  -1.3968  -1.3862  -1.3753
    -1.3647  -1.3601  -1.3398  -1.3313  -1.3262  -1.3220  -1.3098  -1.2861
    -1.2806  -1.2772  -1.2763  -1.2695  -1.2629  -1.2479  -1.2458  -1.2359
    -1.2286  -1.2263  -1.2168  -1.2143  -1.2132  -1.2081  -1.2002  -1.1891
    -1.1851  -1.1813  -1.1800  -1.1676  -1.1651  -1.1582  -1.1576  -1.1179
    -1.1151  -1.1115  -1.1088  -1.1079  -1.1065  -1.0697  -1.0526  -1.0510
    -1.0506  -1.0498  -1.0463  -1.0415  -1.0396  -1.0282  -1.0259  -0.9903
    -0.9894  -0.9826  -0.9818  -0.9603  -0.9591  -0.9497  -0.9209  -0.9124
    -0.8866  -0.8838  -0.8574  -0.8567  -0.8535  -0.8533  -0.8513  -0.8468
    -0.8430  -0.8425  -0.8390  -0.8371  -0.8064  -0.8053  -0.7878  -0.7841
    -0.7832  -0.7811  -0.7797  -0.7771  -0.7617  -0.4875  -0.4750  -0.4192
    -0.4133  -0.3801  -0.2190  -0.1549  -0.1536  -0.1195   0.1647   0.1668
     0.4949   0.4993   0.5933   0.5944   0.6340   0.6369   0.7795   0.7819
     0.9022   0.9050   0.9969   1.5904   1.6076   1.6092   1.6457   1.6534
     1.6973   1.7087   1.7785   1.7802   1.9842   1.9864   2.2233   2.2982
     2.3044   2.3171   2.6954   2.7048   2.7696   2.7722   2.7778   2.7798
     2.9290   2.9305   2.9848   3.0757   3.0771   3.3040   3.3091   3.4389
     3.4654   3.4689   3.7391   3.7404   3.8504   3.8702   3.8719   3.9358
     3.9639   4.0549   4.0596   4.2920   4.2954   4.3811   4.3897   4.5029
     4.5118   4.5268   4.5388   4.6880   5.0983   5.3390   5.3545   5.4339
     5.4415   5.5188   5.6173   5.6206   5.6672   5.7069   5.7300   5.7375
     5.7507   5.7858   5.7886   5.8341   6.0094   6.0887   6.0984   6.1059
     6.1232   6.1291   6.1331   6.1340   6.1394   6.1407   6.1813   6.2145

          k = 0.2500-0.2500-0.0833 (167653 PWs)   bands (ev):

   -19.3319  -7.3125  -6.8327  -6.3060  -6.3049  -5.8763  -5.4668  -5.3745
    -5.3738  -5.1788  -5.1779  -5.0607  -5.0594  -4.9821  -4.9588  -4.8861
    -4.8015  -4.7973  -4.7586  -4.7581  -4.5982  -4.5809  -4.5803  -4.5792
    -4.5725  -4.5172  -4.5166  -4.5053  -4.5046  -4.4680  -4.4557  -4.4546
    -4.4132  -4.4130  -4.3800  -4.3787  -4.3280  -4.3259  -4.3165  -4.3147
    -4.3091  -4.2959  -4.2958  -4.2556  -4.2371  -4.2364  -4.2296  -4.2293
    -4.1977  -4.1483  -4.1327  -4.1318  -4.1299  -4.1279  -4.1203  -4.1153
    -4.1151  -4.1140  -4.0515  -4.0487  -4.0006  -3.9988  -3.9875  -3.9618
    -3.9611  -3.9419  -3.9380  -3.9377  -3.9345  -3.9310  -3.8824  -3.8814
    -3.8695  -3.8682  -3.7652  -3.7628  -3.7600  -3.7564  -3.7196  -3.7136
    -3.6960  -3.6681  -3.6662  -3.6382  -3.6370  -3.6192  -3.6158  -3.6041
    -3.6017  -3.5504  -3.5469  -3.5408  -3.5131  -3.5088  -3.5020  -3.4999
    -3.4994  -3.4761  -3.4717  -3.4451  -3.4349  -3.4240  -3.4139  -3.4005
    -3.3801  -3.3726  -3.3624  -3.3336  -3.3299  -3.2973  -3.2960  -3.2598
    -3.2529  -3.2522  -3.2384  -3.2363  -3.2332  -3.2327  -3.1963  -3.1843
    -3.1446  -3.1439  -3.1357  -3.1269  -3.1255  -3.1245  -3.1005  -3.1003
    -3.0800  -3.0791  -3.0775  -3.0515  -3.0509  -3.0437  -3.0409  -3.0398
    -3.0043  -3.0015  -2.9665  -2.9645  -2.9640  -2.9618  -2.9606  -2.8815
    -2.8720  -2.8692  -2.8672  -2.8667  -2.8654  -2.8622  -2.8607  -2.8598
    -2.8595  -2.8504  -2.8426  -2.8269  -2.8232  -2.8222  -2.8213  -2.8078
    -2.8031  -2.7658  -2.7647  -2.7641  -2.7602  -2.7589  -2.7418  -2.7408
    -2.7331  -2.7324  -2.7297  -2.6719  -2.6707  -2.6655  -2.6649  -2.6606
    -2.6596  -2.6323  -2.5733  -2.5725  -2.5717  -2.5690  -2.5581  -2.5563
    -2.5515  -2.5417  -2.5398  -2.5065  -2.5023  -2.4967  -2.4954  -2.4931
    -2.4924  -2.4554  -2.4539  -2.4451  -2.4435  -2.4424  -2.4413  -2.3995
    -2.3838  -2.3797  -2.3261  -2.3243  -2.3089  -2.3058  -2.2998  -2.2987
    -2.2529  -2.2494  -2.2274  -2.2135  -2.1989  -2.1969  -2.1947  -2.1745
    -2.1730  -2.1641  -2.1474  -2.1117  -2.1066  -2.0953  -2.0916  -2.0901
    -2.0827  -2.0802  -2.0712  -2.0649  -2.0639  -2.0606  -2.0573  -2.0547
    -2.0535  -2.0446  -2.0424  -2.0262  -2.0242  -2.0227  -2.0171  -2.0143
    -2.0125  -1.9913  -1.9890  -1.9784  -1.9768  -1.9715  -1.9702  -1.9329
    -1.9003  -1.8988  -1.8637  -1.8484  -1.8469  -1.8404  -1.8340  -1.8156
    -1.8116  -1.8012  -1.7963  -1.7955  -1.7944  -1.7943  -1.7905  -1.7600
    -1.7588  -1.7583  -1.7147  -1.7131  -1.6757  -1.6719  -1.6280  -1.6258
    -1.6135  -1.5914  -1.5871  -1.5833  -1.5761  -1.5666  -1.5542  -1.5468
    -1.5461  -1.5433  -1.5412  -1.5407  -1.5390  -1.5378  -1.5193  -1.5167
    -1.5060  -1.4900  -1.4756  -1.4717  -1.4547  -1.4446  -1.4415  -1.4402
    -1.4395  -1.4341  -1.4187  -1.4124  -1.4022  -1.3968  -1.3862  -1.3753
    -1.3647  -1.3601  -1.3398  -1.3313  -1.3262  -1.3220  -1.3098  -1.2861
    -1.2806  -1.2772  -1.2763  -1.2695  -1.2629  -1.2479  -1.2458  -1.2359
    -1.2286  -1.2263  -1.2168  -1.2143  -1.2132  -1.2081  -1.2002  -1.1891
    -1.1851  -1.1813  -1.1800  -1.1676  -1.1651  -1.1582  -1.1576  -1.1179
    -1.1151  -1.1115  -1.1088  -1.1079  -1.1065  -1.0697  -1.0526  -1.0510
    -1.0506  -1.0498  -1.0463  -1.0415  -1.0396  -1.0282  -1.0259  -0.9903
    -0.9894  -0.9826  -0.9818  -0.9603  -0.9591  -0.9497  -0.9209  -0.9124
    -0.8866  -0.8838  -0.8574  -0.8567  -0.8535  -0.8533  -0.8513  -0.8468
    -0.8430  -0.8425  -0.8390  -0.8371  -0.8064  -0.8053  -0.7878  -0.7841
    -0.7832  -0.7811  -0.7797  -0.7771  -0.7617  -0.4875  -0.4750  -0.4192
    -0.4133  -0.3801  -0.2190  -0.1549  -0.1536  -0.1195   0.1647   0.1668
     0.4949   0.4993   0.5933   0.5944   0.6340   0.6369   0.7795   0.7819
     0.9022   0.9050   0.9969   1.5904   1.6076   1.6092   1.6457   1.6534
     1.6973   1.7087   1.7785   1.7802   1.9842   1.9864   2.2233   2.2982
     2.3044   2.3171   2.6954   2.7048   2.7696   2.7722   2.7778   2.7798
     2.9290   2.9305   2.9848   3.0757   3.0771   3.3040   3.3091   3.4389
     3.4654   3.4689   3.7391   3.7404   3.8504   3.8702   3.8719   3.9358
     3.9639   4.0549   4.0596   4.2920   4.2954   4.3811   4.3897   4.5029
     4.5118   4.5268   4.5388   4.6879   5.0986   5.3390   5.3535   5.4340
     5.4416   5.5224   5.6175   5.6206   5.6644   5.7041   5.7303   5.7375
     5.7500   5.7856   5.7886   5.8340   6.0082   6.0890   6.0991   6.1051
     6.1215   6.1295   6.1333   6.1354   6.1400   6.1412   6.1906   6.2210

          k =-0.2500 0.2500 0.2500 (167588 PWs)   bands (ev):

   -19.3319  -7.3125  -6.8327  -6.3060  -6.3049  -5.8763  -5.4668  -5.3745
    -5.3738  -5.1788  -5.1779  -5.0607  -5.0594  -4.9821  -4.9588  -4.8861
    -4.8015  -4.7973  -4.7586  -4.7581  -4.5982  -4.5809  -4.5803  -4.5792
    -4.5726  -4.5172  -4.5166  -4.5053  -4.5046  -4.4680  -4.4557  -4.4546
    -4.4132  -4.4130  -4.3800  -4.3787  -4.3280  -4.3259  -4.3165  -4.3147
    -4.3091  -4.2959  -4.2958  -4.2556  -4.2371  -4.2364  -4.2296  -4.2293
    -4.1977  -4.1483  -4.1327  -4.1318  -4.1299  -4.1279  -4.1203  -4.1153
    -4.1151  -4.1140  -4.0515  -4.0487  -4.0006  -3.9988  -3.9875  -3.9618
    -3.9611  -3.9419  -3.9380  -3.9377  -3.9345  -3.9311  -3.8824  -3.8814
    -3.8695  -3.8682  -3.7652  -3.7628  -3.7601  -3.7564  -3.7196  -3.7136
    -3.6960  -3.6681  -3.6662  -3.6382  -3.6370  -3.6192  -3.6158  -3.6041
    -3.6017  -3.5504  -3.5469  -3.5408  -3.5131  -3.5088  -3.5020  -3.4999
    -3.4994  -3.4761  -3.4717  -3.4451  -3.4349  -3.4240  -3.4139  -3.4005
    -3.3801  -3.3725  -3.3624  -3.3336  -3.3299  -3.2973  -3.2960  -3.2598
    -3.2529  -3.2522  -3.2384  -3.2363  -3.2332  -3.2327  -3.1963  -3.1843
    -3.1446  -3.1439  -3.1357  -3.1269  -3.1255  -3.1245  -3.1005  -3.1003
    -3.0800  -3.0791  -3.0775  -3.0515  -3.0509  -3.0437  -3.0409  -3.0398
    -3.0043  -3.0015  -2.9665  -2.9645  -2.9640  -2.9618  -2.9606  -2.8815
    -2.8720  -2.8692  -2.8672  -2.8667  -2.8654  -2.8622  -2.8607  -2.8598
    -2.8595  -2.8504  -2.8426  -2.8269  -2.8232  -2.8222  -2.8213  -2.8078
    -2.8031  -2.7658  -2.7647  -2.7641  -2.7602  -2.7589  -2.7418  -2.7408
    -2.7331  -2.7324  -2.7298  -2.6719  -2.6707  -2.6655  -2.6649  -2.6606
    -2.6596  -2.6323  -2.5733  -2.5725  -2.5717  -2.5690  -2.5581  -2.5563
    -2.5515  -2.5417  -2.5397  -2.5065  -2.5023  -2.4967  -2.4954  -2.4931
    -2.4924  -2.4554  -2.4539  -2.4451  -2.4435  -2.4424  -2.4413  -2.3995
    -2.3838  -2.3797  -2.3260  -2.3243  -2.3089  -2.3059  -2.2998  -2.2987
    -2.2529  -2.2494  -2.2274  -2.2135  -2.1989  -2.1969  -2.1947  -2.1745
    -2.1730  -2.1641  -2.1474  -2.1117  -2.1066  -2.0953  -2.0916  -2.0901
    -2.0827  -2.0802  -2.0712  -2.0649  -2.0639  -2.0607  -2.0573  -2.0547
    -2.0535  -2.0446  -2.0424  -2.0262  -2.0242  -2.0227  -2.0171  -2.0143
    -2.0125  -1.9914  -1.9890  -1.9784  -1.9768  -1.9715  -1.9702  -1.9329
    -1.9003  -1.8988  -1.8637  -1.8484  -1.8469  -1.8404  -1.8339  -1.8156
    -1.8116  -1.8012  -1.7963  -1.7955  -1.7944  -1.7943  -1.7905  -1.7600
    -1.7588  -1.7583  -1.7147  -1.7131  -1.6757  -1.6719  -1.6280  -1.6258
    -1.6135  -1.5914  -1.5871  -1.5833  -1.5761  -1.5666  -1.5542  -1.5468
    -1.5461  -1.5433  -1.5412  -1.5407  -1.5390  -1.5378  -1.5193  -1.5167
    -1.5060  -1.4900  -1.4756  -1.4717  -1.4547  -1.4446  -1.4415  -1.4402
    -1.4395  -1.4341  -1.4187  -1.4123  -1.4022  -1.3968  -1.3862  -1.3754
    -1.3647  -1.3601  -1.3398  -1.3313  -1.3262  -1.3220  -1.3098  -1.2861
    -1.2805  -1.2772  -1.2763  -1.2695  -1.2629  -1.2478  -1.2458  -1.2359
    -1.2286  -1.2263  -1.2167  -1.2142  -1.2132  -1.2081  -1.2002  -1.1891
    -1.1851  -1.1813  -1.1800  -1.1676  -1.1651  -1.1582  -1.1576  -1.1179
    -1.1151  -1.1115  -1.1088  -1.1080  -1.1065  -1.0697  -1.0526  -1.0510
    -1.0506  -1.0498  -1.0463  -1.0415  -1.0396  -1.0282  -1.0259  -0.9903
    -0.9894  -0.9826  -0.9818  -0.9603  -0.9591  -0.9497  -0.9209  -0.9124
    -0.8866  -0.8838  -0.8574  -0.8567  -0.8535  -0.8533  -0.8513  -0.8468
    -0.8430  -0.8425  -0.8390  -0.8371  -0.8064  -0.8053  -0.7878  -0.7841
    -0.7832  -0.7811  -0.7797  -0.7770  -0.7617  -0.4875  -0.4750  -0.4191
    -0.4133  -0.3801  -0.2190  -0.1549  -0.1536  -0.1195   0.1647   0.1668
     0.4949   0.4993   0.5933   0.5944   0.6340   0.6369   0.7795   0.7820
     0.9022   0.9050   0.9969   1.5904   1.6076   1.6092   1.6457   1.6534
     1.6973   1.7088   1.7785   1.7802   1.9842   1.9864   2.2233   2.2982
     2.3044   2.3171   2.6954   2.7048   2.7696   2.7722   2.7778   2.7798
     2.9290   2.9305   2.9848   3.0757   3.0771   3.3040   3.3091   3.4389
     3.4654   3.4689   3.7391   3.7404   3.8504   3.8702   3.8719   3.9358
     3.9640   4.0549   4.0596   4.2920   4.2954   4.3811   4.3897   4.5029
     4.5118   4.5268   4.5388   4.6881   5.0906   5.3361   5.3510   5.4338
     5.4405   5.5222   5.6183   5.6206   5.6785   5.7182   5.7329   5.7404
     5.7583   5.7863   5.7886   5.8340   6.0439   6.0734   6.0991   6.1066
     6.1198   6.1287   6.1319   6.1374   6.1399   6.1460   6.2004   6.2342

     the Fermi energy is     0.8542 ev

!    total energy              =   -7425.28553273 Ry
     Harris-Foulkes estimate   =   -7425.28553273 Ry
     estimated scf accuracy    <          2.0E-09 Ry

     The total energy is the sum of the following terms:

     one-electron contribution =  -48752.97301886 Ry
     hartree contribution      =   24927.00040720 Ry
     xc contribution           =   -3604.23938380 Ry
     ewald contribution        =   20004.92911055 Ry
     smearing contrib. (-TS)   =      -0.00264783 Ry

     convergence has been achieved in  29 iterations

     Writing output data file 8703761.save

     init_run     :    118.20s CPU    125.40s WALL (       1 calls)
     electrons    :   8870.22s CPU   9297.62s WALL (       1 calls)

     Called by init_run:
     wfcinit      :     91.39s CPU     97.80s WALL (       1 calls)
     potinit      :      6.28s CPU      6.76s WALL (       1 calls)

     Called by electrons:
     c_bands      :   7403.66s CPU   7745.31s WALL (      30 calls)
     sum_band     :   1007.17s CPU   1076.93s WALL (      30 calls)
     v_of_rho     :    110.11s CPU    121.08s WALL (      30 calls)
     newd         :    357.71s CPU    361.85s WALL (      30 calls)
     mix_rho      :      3.19s CPU      3.64s WALL (      30 calls)
     vdW_energy   :     11.74s CPU     12.48s WALL (      30 calls)
     vdW_ffts     :     55.34s CPU     60.61s WALL (      60 calls)
     vdW_v        :     13.69s CPU     14.68s WALL (      30 calls)

     Called by c_bands:
     init_us_2    :      9.86s CPU     10.18s WALL (     366 calls)
     cegterg      :   7188.68s CPU   7528.68s WALL (     180 calls)

     Called by *egterg:
     h_psi        :   2894.68s CPU   3191.48s WALL (     878 calls)
     s_psi        :    382.35s CPU    384.54s WALL (     878 calls)
     g_psi        :      4.76s CPU      4.81s WALL (     692 calls)
     cdiaghg      :   1691.12s CPU   1696.59s WALL (     866 calls)

     Called by h_psi:
     add_vuspsi   :    382.72s CPU    384.93s WALL (     878 calls)

     General routines
     calbec       :    876.31s CPU    879.35s WALL (    1058 calls)
     fft          :    219.89s CPU    230.51s WALL (    1980 calls)
     ffts         :      1.51s CPU      1.76s WALL (      60 calls)
     fftw         :   2089.48s CPU   2422.37s WALL (  480912 calls)
     interpolate  :      3.75s CPU      4.45s WALL (      60 calls)
     davcio       :      0.00s CPU      0.11s WALL (       6 calls)

     Parallel routines
     fft_scatter  :   1726.84s CPU   1990.00s WALL (  482952 calls)

     PWSCF        :     2h30m CPU        2h37m WALL


   This run was terminated on:  13: 3:41  25Jun2015            

=------------------------------------------------------------------------------=
   JOB DONE.
=------------------------------------------------------------------------------=
