Setting SGE environment for SCC

     Program PWSCF v.5.1.2 starts on 29Aug2015 at 14:34:22 

     This program is part of the open-source Quantum ESPRESSO suite
     for quantum simulation of materials; please cite
         "P. Giannozzi et al., J. Phys.:Condens. Matter 21 395502 (2009);
          URL http://www.quantum-espresso.org", 
     in publications or presentations arising from this work. More details at
     http://www.quantum-espresso.org/quote

     Parallel version (MPI), running on    32 processors
     R & G space division:  proc/nbgrp/npool/nimage =      32
     Reading input from top.O1.Au62.d.2.8.phi.0.psi.0.in
Warning: card &IONS ignored
Warning: card / ignored
Warning: card &CELL ignored
Warning: card / ignored

     Current dimensions of program PWSCF are:
     Max number of different atomic species (ntypx) = 10
     Max number of k-points (npk) =  40000
     Max angular momentum in pseudopotentials (lmaxx) =  3

     IMPORTANT: XC functional enforced from input :
     Exchange-correlation      = VDW-DF ( 1  4  4  0 1 0)
     Any further DFT definition will be discarded
     Please, verify this is what you really want


     Subspace diagonalization in iterative solution of the eigenvalue problem:
     a serial algorithm will be used


     Parallelization info
     --------------------
     sticks:   dense  smooth     PW     G-vecs:    dense   smooth      PW
     Min         578     289     74               118518    41891    5486
     Max         579     290     75               118533    41932    5497
     Sum       18505    9265   2385              3792731  1341081  175711


     Title: 
     top.O1.Au62.d.2.8.phi.0.psi.0                                              


     bravais-lattice index     =            8
     lattice parameter (alat)  =      24.1233  a.u.
     unit-cell volume          =   28076.2361 (a.u.)^3
     number of atoms/cell      =           75
     number of atomic types    =            3
     number of electrons       =       800.00
     number of Kohn-Sham states=          480
     kinetic-energy cutoff     =      50.0000  Ry
     charge density cutoff     =     400.0000  Ry
     convergence threshold     =      1.0E-08
     mixing beta               =       0.7000
     number of iterations used =            8  plain     mixing
     Exchange-correlation      = VDW-DF ( 1  4  4  0 1 0)

     celldm(1)=  24.123277  celldm(2)=   1.000000  celldm(3)=   2.000000
     celldm(4)=   0.000000  celldm(5)=   0.000000  celldm(6)=   0.000000

     crystal axes: (cart. coord. in units of alat)
               a(1) = (   1.000000   0.000000   0.000000 )  
               a(2) = (   0.000000   1.000000   0.000000 )  
               a(3) = (   0.000000   0.000000   2.000000 )  

     reciprocal axes: (cart. coord. in units 2 pi/alat)
               b(1) = (  1.000000  0.000000  0.000000 )  
               b(2) = (  0.000000  1.000000  0.000000 )  
               b(3) = (  0.000000  0.000000  0.500000 )  


     PseudoPot. # 1 for Au read from file:
     /home/scc/andrejb/qe/pseudo/Au.pbe-nd-van.UPF
     MD5 check sum: 458681b50f36d87ef23c61b04bba420a
     Pseudo is Ultrasoft + core correction, Zval = 11.0
     Generated by new atomic code, or converted to UPF format
     Using radial grid of  985 points,  3 beta functions with: 
                l(1) =   1
                l(2) =   2
                l(3) =   2
     Q(r) pseudized with  8 coefficients,  rinner =    1.100   1.100   1.100
                                                       1.100   1.100

     PseudoPot. # 2 for H  read from file:
     /home/scc/andrejb/qe/pseudo/H.pbe-van_ak.UPF
     MD5 check sum: 403db7282739603aa925980fa9b8608d
     Pseudo is Ultrasoft, Zval =  1.0
     Generated by new atomic code, or converted to UPF format
     Using radial grid of  615 points,  1 beta functions with: 
                l(1) =   0
     Q(r) pseudized with  8 coefficients,  rinner =    0.800

     PseudoPot. # 3 for O  read from file:
     /home/scc/andrejb/qe/pseudo/O.pbe-van_ak.UPF
     MD5 check sum: 4b8c549914a63cae506c6ff22b5af4fe
     Pseudo is Ultrasoft, Zval =  6.0
     Generated by new atomic code, or converted to UPF format
     Using radial grid of  737 points,  4 beta functions with: 
                l(1) =   0
                l(2) =   0
                l(3) =   1
                l(4) =   1
     Q(r) pseudized with  8 coefficients,  rinner =    0.800   0.800   0.800


     vdW kernel table read from file vdW_kernel_table
     MD5 check sum: 48e77a2e26edf626eeb0eaa751ad5cac

     atomic species   valence    mass     pseudopotential
        Au            11.00   196.96657     Au( 1.00)
        H              1.00     1.01000     H ( 1.00)
        O              6.00    16.00000     O ( 1.00)

     No symmetry found



   Cartesian axes

     site n.     atom                  positions (alat units)
         1           O   tau(   1) = (   0.4998324   0.3332216   0.7186599  )
         2           H   tau(   2) = (   0.4527548   0.2940501   0.7641538  )
         3           H   tau(   3) = (   0.5454827   0.3712233   0.7665176  )
         4           Au  tau(   4) = (   0.0000000   0.0000000   0.0000000  )
         5           Au  tau(   5) = (   0.3332217   0.0000000   0.0000000  )
         6           Au  tau(   6) = (   0.6664434   0.0000000   0.0000000  )
         7           Au  tau(   7) = (   0.1666109   0.1666109   0.0000000  )
         8           Au  tau(   8) = (   0.4998326   0.1666109   0.0000000  )
         9           Au  tau(   9) = (   0.8330542   0.1666109   0.0000000  )
        10           Au  tau(  10) = (   0.0000000   0.3332217   0.0000000  )
        11           Au  tau(  11) = (   0.3332217   0.3332217   0.0000000  )
        12           Au  tau(  12) = (   0.6664434   0.3332217   0.0000000  )
        13           Au  tau(  13) = (   0.1666109   0.4998326   0.0000000  )
        14           Au  tau(  14) = (   0.4998326   0.4998326   0.0000000  )
        15           Au  tau(  15) = (   0.8330542   0.4998326   0.0000000  )
        16           Au  tau(  16) = (   0.0000000   0.6664434   0.0000000  )
        17           Au  tau(  17) = (   0.3332217   0.6664434   0.0000000  )
        18           Au  tau(  18) = (   0.6664434   0.6664434   0.0000000  )
        19           Au  tau(  19) = (   0.1666109   0.8330542   0.0000000  )
        20           Au  tau(  20) = (   0.4998326   0.8330542   0.0000000  )
        21           Au  tau(  21) = (   0.8330542   0.8330542   0.0000000  )
        22           Au  tau(  22) = (   0.1666109   0.0000000   0.1666109  )
        23           Au  tau(  23) = (   0.4998326   0.0000000   0.1666109  )
        24           Au  tau(  24) = (   0.8330542   0.0000000   0.1666109  )
        25           Au  tau(  25) = (   0.0000000   0.1666109   0.1666109  )
        26           Au  tau(  26) = (   0.3332217   0.1666109   0.1666109  )
        27           Au  tau(  27) = (   0.6664434   0.1666109   0.1666109  )
        28           Au  tau(  28) = (   0.1666109   0.3332217   0.1666109  )
        29           Au  tau(  29) = (   0.4998326   0.3332217   0.1666109  )
        30           Au  tau(  30) = (   0.8330542   0.3332217   0.1666109  )
        31           Au  tau(  31) = (   0.0000000   0.4998326   0.1666109  )
        32           Au  tau(  32) = (   0.3332217   0.4998326   0.1666109  )
        33           Au  tau(  33) = (   0.6664434   0.4998326   0.1666109  )
        34           Au  tau(  34) = (   0.1666109   0.6664434   0.1666109  )
        35           Au  tau(  35) = (   0.4998326   0.6664434   0.1666109  )
        36           Au  tau(  36) = (   0.8330542   0.6664434   0.1666109  )
        37           Au  tau(  37) = (   0.0000000   0.8330542   0.1666109  )
        38           Au  tau(  38) = (   0.3332217   0.8330542   0.1666109  )
        39           Au  tau(  39) = (   0.6664434   0.8330542   0.1666109  )
        40           Au  tau(  40) = (  -0.0000182  -0.0000182   0.3335478  )
        41           Au  tau(  41) = (   0.3332215  -0.0000181   0.3335473  )
        42           Au  tau(  42) = (   0.6664447  -0.0000183   0.3335481  )
        43           Au  tau(  43) = (  -0.0000181   0.3332215   0.3335473  )
        44           Au  tau(  44) = (   0.3332215   0.3332215   0.3335468  )
        45           Au  tau(  45) = (   0.6664445   0.3332215   0.3335477  )
        46           Au  tau(  46) = (  -0.0000183   0.6664447   0.3335481  )
        47           Au  tau(  47) = (   0.3332215   0.6664445   0.3335477  )
        48           Au  tau(  48) = (   0.6664446   0.6664446   0.3335486  )
        49           Au  tau(  49) = (   0.1666097   0.1666097   0.3335483  )
        50           Au  tau(  50) = (   0.4998320   0.1666098   0.3335477  )
        51           Au  tau(  51) = (   0.8330732   0.1666096   0.3335480  )
        52           Au  tau(  52) = (   0.1666098   0.4998320   0.3335477  )
        53           Au  tau(  53) = (   0.4998322   0.4998322   0.3335470  )
        54           Au  tau(  54) = (   0.8330731   0.4998322   0.3335474  )
        55           Au  tau(  55) = (   0.1666096   0.8330732   0.3335480  )
        56           Au  tau(  56) = (   0.4998322   0.8330731   0.3335474  )
        57           Au  tau(  57) = (   0.8330731   0.8330731   0.3335478  )
        58           Au  tau(  58) = (   0.1666104  -0.0000111   0.4993095  )
        59           Au  tau(  59) = (   0.4998323  -0.0000112   0.4993099  )
        60           Au  tau(  60) = (   0.8330660  -0.0000111   0.4993009  )
        61           Au  tau(  61) = (  -0.0000111   0.1666104   0.4993095  )
        62           Au  tau(  62) = (   0.3332213   0.1666106   0.4993185  )
        63           Au  tau(  63) = (   0.6664437   0.1666106   0.4993187  )
        64           Au  tau(  64) = (   0.1666106   0.3332213   0.4993185  )
        65           Au  tau(  65) = (   0.4998324   0.3332216   0.4993185  )
        66           Au  tau(  66) = (   0.8330658   0.3332215   0.4993102  )
        67           Au  tau(  67) = (  -0.0000112   0.4998323   0.4993099  )
        68           Au  tau(  68) = (   0.3332216   0.4998324   0.4993185  )
        69           Au  tau(  69) = (   0.6664437   0.4998325   0.4993187  )
        70           Au  tau(  70) = (   0.1666106   0.6664437   0.4993187  )
        71           Au  tau(  71) = (   0.4998325   0.6664437   0.4993187  )
        72           Au  tau(  72) = (   0.8330658   0.6664438   0.4993102  )
        73           Au  tau(  73) = (  -0.0000111   0.8330660   0.4993009  )
        74           Au  tau(  74) = (   0.3332215   0.8330658   0.4993102  )
        75           Au  tau(  75) = (   0.6664438   0.8330658   0.4993102  )

     number of k points=     6  Marzari-Vanderbilt smearing, width (Ry)=  0.0200
                       cart. coord. in units 2pi/alat
        k(    1) = (   0.2500000   0.2500000   0.0833333), wk =   0.3333333
        k(    2) = (   0.2500000   0.2500000  -0.2500000), wk =   0.3333333
        k(    3) = (  -0.2500000  -0.2500000   0.0833333), wk =   0.3333333
        k(    4) = (  -0.2500000   0.2500000  -0.0833333), wk =   0.3333333
        k(    5) = (   0.2500000  -0.2500000  -0.0833333), wk =   0.3333333
        k(    6) = (  -0.2500000   0.2500000   0.2500000), wk =   0.3333333

     Dense  grid:  3792731 G-vectors     FFT dimensions: ( 160, 160, 320)

     Smooth grid:  1341081 G-vectors     FFT dimensions: ( 120, 120, 225)

     Largest allocated arrays     est. size (Mb)     dimensions
        Kohn-Sham Wavefunctions        38.58 Mb     (    5267,  480)
        NL pseudopotentials            76.03 Mb     (    5267,  946)
        Each V/rho on FFT grid          3.91 Mb     (  256000)
        Each G-vector array             0.90 Mb     (  118520)
        G-vector shells                 0.08 Mb     (   10286)
     Largest temporary arrays     est. size (Mb)     dimensions
        Auxiliary wavefunctions       154.31 Mb     (    5267, 1920)
        Each subspace H/S matrix       56.25 Mb     (    1920, 1920)
        Each <psi_i|beta_j> matrix      6.93 Mb     (     946,  480)
        Arrays for rho mixing          31.25 Mb     (  256000,    8)

     Initial potential from superposition of free atoms
     Check: negative starting charge=   -1.945076

     starting charge  799.16392, renormalised to  800.00000

     negative rho (up, down):  1.947E+00 0.000E+00


     ************************************************************************
     *
     * You are using vdW-DF for exchange-correlation in this calculation.
     * Please cite the following three references that made this development
     * possible:
     *
     *   M. Dion, H. Rydberg, E. Schroder, D. C. Langreth, and
     *   B. I. Lundqvist, Phys. Rev. Lett. 92, 246401 (2004).
     *
     *   T. Thonhauser, V. R. Cooper, S. Li, A. Puzder, P. Hyldgaard, and
     *   D. C. Langreth, Phys. Rev. B 76, 125112 (2007).
     *
     *   G. Roman-Perez and J. M. Soler, Phys. Rev. Lett. 103, 096102 (2009).
     *
     *
     * If you are using vdW-DF2, please also cite:
     *
     *   K. Lee, E. D. Murray, L. Kong, B. I. Lundqvist, and
     *   D. C. Langreth, Phys. Rev. B 82, 081101(R) (2010).
     *
     *
     * If you are calculating the stress with vdW-DF, please also cite:
     *
     *   R. Sabatini, E. Kucukbenli, B. Kolb, T. Thonhauser, and
     *   S. de Gironcoli, J. Phys.: Condens. Matter 24, 424209 (2012).
     *
     ************************************************************************

     Carrying out vdW-DF run using the following parameters:

     Nqs =      20    Nr_points =    1024   r_max =   100.000
     q_mesh =
               0.00001000     0.04494208     0.09755937     0.15916263
               0.23128650     0.31572767     0.41458969     0.53033537
               0.66584808     0.82450364     1.01025438     1.22772762
               1.48234092     1.78043706     2.12944203     2.53805004
               3.01644009     3.57652955     4.23227104     5.00000000

     Gradients computed in reciprocal space

     ************************************************************************


     Starting wfc are  654 randomized atomic wfcs

     total cpu time spent up to now is      140.4 secs

     Self-consistent Calculation

     iteration #  1     ecut=    50.00 Ry     beta=0.70
     Davidson diagonalization with overlap
     ethr =  1.00E-02,  avg # of iterations =  3.0

     Threshold (ethr) on eigenvalues was too large:
     Diagonalizing with lowered threshold

     Davidson diagonalization with overlap
     ethr =  4.30E-04,  avg # of iterations =  2.5

     negative rho (up, down):  1.947E+00 0.000E+00

     total cpu time spent up to now is      565.7 secs

     total energy              =   -7422.99744793 Ry
     Harris-Foulkes estimate   =   -7426.09306106 Ry
     estimated scf accuracy    <       3.81944583 Ry

     iteration #  2     ecut=    50.00 Ry     beta=0.70
     Davidson diagonalization with overlap
     ethr =  4.77E-04,  avg # of iterations = 11.3

     negative rho (up, down):  1.941E+00 0.000E+00

     total cpu time spent up to now is     1238.4 secs

     total energy              =   -7414.35438515 Ry
     Harris-Foulkes estimate   =   -7432.85261136 Ry
     estimated scf accuracy    <      98.73883058 Ry

     iteration #  3     ecut=    50.00 Ry     beta=0.70
     Davidson diagonalization with overlap
     ethr =  4.77E-04,  avg # of iterations =  6.3

     negative rho (up, down):  1.951E+00 0.000E+00

     total cpu time spent up to now is     1661.3 secs

     total energy              =   -7424.18838193 Ry
     Harris-Foulkes estimate   =   -7425.87500349 Ry
     estimated scf accuracy    <       6.91923906 Ry

     iteration #  4     ecut=    50.00 Ry     beta=0.70
     Davidson diagonalization with overlap
     ethr =  4.77E-04,  avg # of iterations =  6.0

     negative rho (up, down):  1.954E+00 0.000E+00

     total cpu time spent up to now is     1921.2 secs

     total energy              =   -7424.69532848 Ry
     Harris-Foulkes estimate   =   -7425.80266176 Ry
     estimated scf accuracy    <       7.74174483 Ry

     iteration #  5     ecut=    50.00 Ry     beta=0.70
     Davidson diagonalization with overlap
     ethr =  4.77E-04,  avg # of iterations =  6.5

     negative rho (up, down):  1.963E+00 0.000E+00

     total cpu time spent up to now is     2169.3 secs

     total energy              =   -7425.18498262 Ry
     Harris-Foulkes estimate   =   -7425.48062926 Ry
     estimated scf accuracy    <       1.90709345 Ry

     iteration #  6     ecut=    50.00 Ry     beta=0.70
     Davidson diagonalization with overlap
     ethr =  2.38E-04,  avg # of iterations =  3.7

     negative rho (up, down):  1.966E+00 0.000E+00

     total cpu time spent up to now is     2382.2 secs

     total energy              =   -7425.28176284 Ry
     Harris-Foulkes estimate   =   -7425.32823404 Ry
     estimated scf accuracy    <       0.15394817 Ry

     iteration #  7     ecut=    50.00 Ry     beta=0.70
     Davidson diagonalization with overlap
     ethr =  1.92E-05,  avg # of iterations = 11.5

     negative rho (up, down):  1.969E+00 0.000E+00

     total cpu time spent up to now is     2702.7 secs

     total energy              =   -7425.28440269 Ry
     Harris-Foulkes estimate   =   -7425.31876017 Ry
     estimated scf accuracy    <       0.15394721 Ry

     iteration #  8     ecut=    50.00 Ry     beta=0.70
     Davidson diagonalization with overlap
     ethr =  1.92E-05,  avg # of iterations =  3.2

     negative rho (up, down):  1.970E+00 0.000E+00

     total cpu time spent up to now is     2916.1 secs

     total energy              =   -7425.28682848 Ry
     Harris-Foulkes estimate   =   -7425.30843473 Ry
     estimated scf accuracy    <       0.09276447 Ry

     iteration #  9     ecut=    50.00 Ry     beta=0.70
     Davidson diagonalization with overlap
     ethr =  1.16E-05,  avg # of iterations =  9.2

     negative rho (up, down):  1.972E+00 0.000E+00

     total cpu time spent up to now is     3184.8 secs

     total energy              =   -7425.29166541 Ry
     Harris-Foulkes estimate   =   -7425.30104514 Ry
     estimated scf accuracy    <       0.03351259 Ry

     iteration # 10     ecut=    50.00 Ry     beta=0.70
     Davidson diagonalization with overlap
     ethr =  4.19E-06,  avg # of iterations =  6.7

     negative rho (up, down):  1.972E+00 0.000E+00

     total cpu time spent up to now is     3422.2 secs

     total energy              =   -7425.29461805 Ry
     Harris-Foulkes estimate   =   -7425.29702780 Ry
     estimated scf accuracy    <       0.00661698 Ry

     iteration # 11     ecut=    50.00 Ry     beta=0.70
     Davidson diagonalization with overlap
     ethr =  8.27E-07,  avg # of iterations = 15.8

     negative rho (up, down):  1.973E+00 0.000E+00

     total cpu time spent up to now is     3793.3 secs

     total energy              =   -7425.29548712 Ry
     Harris-Foulkes estimate   =   -7425.29617457 Ry
     estimated scf accuracy    <       0.00215779 Ry

     iteration # 12     ecut=    50.00 Ry     beta=0.70
     Davidson diagonalization with overlap
     ethr =  2.70E-07,  avg # of iterations =  2.0

     negative rho (up, down):  1.974E+00 0.000E+00

     total cpu time spent up to now is     3997.5 secs

     total energy              =   -7425.29553712 Ry
     Harris-Foulkes estimate   =   -7425.29589093 Ry
     estimated scf accuracy    <       0.00064462 Ry

     iteration # 13     ecut=    50.00 Ry     beta=0.70
     Davidson diagonalization with overlap
     ethr =  8.06E-08,  avg # of iterations =  4.8

     negative rho (up, down):  1.974E+00 0.000E+00

     total cpu time spent up to now is     4307.9 secs

     total energy              =   -7425.29523229 Ry
     Harris-Foulkes estimate   =   -7425.29628694 Ry
     estimated scf accuracy    <       0.00481458 Ry

     iteration # 14     ecut=    50.00 Ry     beta=0.70
     Davidson diagonalization with overlap
     ethr =  8.06E-08,  avg # of iterations =  3.0

     negative rho (up, down):  1.974E+00 0.000E+00

     total cpu time spent up to now is     4573.2 secs

     total energy              =   -7425.29569211 Ry
     Harris-Foulkes estimate   =   -7425.29579116 Ry
     estimated scf accuracy    <       0.00043693 Ry

     iteration # 15     ecut=    50.00 Ry     beta=0.70
     Davidson diagonalization with overlap
     ethr =  5.46E-08,  avg # of iterations =  2.0

     negative rho (up, down):  1.974E+00 0.000E+00

     total cpu time spent up to now is     4771.1 secs

     total energy              =   -7425.29571194 Ry
     Harris-Foulkes estimate   =   -7425.29577347 Ry
     estimated scf accuracy    <       0.00028068 Ry

     iteration # 16     ecut=    50.00 Ry     beta=0.70
     Davidson diagonalization with overlap
     ethr =  3.51E-08,  avg # of iterations =  2.0

     negative rho (up, down):  1.974E+00 0.000E+00

     total cpu time spent up to now is     4976.1 secs

     total energy              =   -7425.29570973 Ry
     Harris-Foulkes estimate   =   -7425.29580103 Ry
     estimated scf accuracy    <       0.00076576 Ry

     iteration # 17     ecut=    50.00 Ry     beta=0.70
     Davidson diagonalization with overlap
     ethr =  3.51E-08,  avg # of iterations =  1.0

     negative rho (up, down):  1.974E+00 0.000E+00

     total cpu time spent up to now is     5164.3 secs

     total energy              =   -7425.29575108 Ry
     Harris-Foulkes estimate   =   -7425.29575485 Ry
     estimated scf accuracy    <       0.00001150 Ry

     iteration # 18     ecut=    50.00 Ry     beta=0.70
     Davidson diagonalization with overlap
     ethr =  1.44E-09,  avg # of iterations =  3.0

     negative rho (up, down):  1.974E+00 0.000E+00

     total cpu time spent up to now is     5389.8 secs

     total energy              =   -7425.29575251 Ry
     Harris-Foulkes estimate   =   -7425.29575483 Ry
     estimated scf accuracy    <       0.00001010 Ry

     iteration # 19     ecut=    50.00 Ry     beta=0.70
     Davidson diagonalization with overlap
     ethr =  1.26E-09,  avg # of iterations =  2.0

     negative rho (up, down):  1.974E+00 0.000E+00

     total cpu time spent up to now is     5580.0 secs

     total energy              =   -7425.29575314 Ry
     Harris-Foulkes estimate   =   -7425.29575423 Ry
     estimated scf accuracy    <       0.00000464 Ry

     iteration # 20     ecut=    50.00 Ry     beta=0.70
     Davidson diagonalization with overlap
     ethr =  5.80E-10,  avg # of iterations =  2.0

     negative rho (up, down):  1.974E+00 0.000E+00

     total cpu time spent up to now is     5777.7 secs

     total energy              =   -7425.29575354 Ry
     Harris-Foulkes estimate   =   -7425.29575389 Ry
     estimated scf accuracy    <       0.00000125 Ry

     iteration # 21     ecut=    50.00 Ry     beta=0.70
     Davidson diagonalization with overlap
     ethr =  1.56E-10,  avg # of iterations =  2.0

     negative rho (up, down):  1.974E+00 0.000E+00

     total cpu time spent up to now is     6011.1 secs

     total energy              =   -7425.29575371 Ry
     Harris-Foulkes estimate   =   -7425.29575377 Ry
     estimated scf accuracy    <       0.00000021 Ry

     iteration # 22     ecut=    50.00 Ry     beta=0.70
     Davidson diagonalization with overlap
     ethr =  2.60E-11,  avg # of iterations =  3.0

     negative rho (up, down):  1.974E+00 0.000E+00

     total cpu time spent up to now is     6236.7 secs

     total energy              =   -7425.29575373 Ry
     Harris-Foulkes estimate   =   -7425.29575377 Ry
     estimated scf accuracy    <       0.00000012 Ry

     iteration # 23     ecut=    50.00 Ry     beta=0.70
     Davidson diagonalization with overlap
     ethr =  1.50E-11,  avg # of iterations =  3.0

     negative rho (up, down):  1.974E+00 0.000E+00

     total cpu time spent up to now is     6440.8 secs

     total energy              =   -7425.29575375 Ry
     Harris-Foulkes estimate   =   -7425.29575376 Ry
     estimated scf accuracy    <       0.00000003 Ry

     iteration # 24     ecut=    50.00 Ry     beta=0.70
     Davidson diagonalization with overlap
     ethr =  3.18E-12,  avg # of iterations =  2.3

     negative rho (up, down):  1.974E+00 0.000E+00

     total cpu time spent up to now is     6672.3 secs

     total energy              =   -7425.29575375 Ry
     Harris-Foulkes estimate   =   -7425.29575376 Ry
     estimated scf accuracy    <       0.00000003 Ry

     iteration # 25     ecut=    50.00 Ry     beta=0.70
     Davidson diagonalization with overlap
     ethr =  3.18E-12,  avg # of iterations =  2.0

     negative rho (up, down):  1.974E+00 0.000E+00

     total cpu time spent up to now is     6857.5 secs

     total energy              =   -7425.29575375 Ry
     Harris-Foulkes estimate   =   -7425.29575376 Ry
     estimated scf accuracy    <       0.00000002 Ry

     iteration # 26     ecut=    50.00 Ry     beta=0.70
     Davidson diagonalization with overlap
     ethr =  2.69E-12,  avg # of iterations =  2.0

     negative rho (up, down):  1.974E+00 0.000E+00

     total cpu time spent up to now is     7045.2 secs

     End of self-consistent calculation

          k = 0.2500 0.2500 0.0833 (167653 PWs)   bands (ev):

   -20.0451  -7.8355  -6.7040  -6.1758  -6.1750  -5.7458  -5.3407  -5.2440
    -5.2438  -5.0479  -5.0470  -4.9405  -4.9307  -4.8505  -4.8320  -4.7561
    -4.6696  -4.6685  -4.6365  -4.6271  -4.5106  -4.4652  -4.4489  -4.4475
    -4.4413  -4.4391  -4.3856  -4.3814  -4.3742  -4.3677  -4.3364  -4.3250
    -4.3076  -4.2817  -4.2743  -4.2482  -4.2470  -4.1959  -4.1939  -4.1836
    -4.1825  -4.1776  -4.1644  -4.1618  -4.1225  -4.1048  -4.1047  -4.0984
    -4.0973  -4.0647  -4.0149  -4.0013  -4.0001  -3.9974  -3.9938  -3.9860
    -3.9836  -3.9828  -3.9793  -3.9194  -3.9165  -3.8687  -3.8633  -3.8551
    -3.8297  -3.8292  -3.8083  -3.8065  -3.8035  -3.8025  -3.7996  -3.7504
    -3.7488  -3.7377  -3.7366  -3.6328  -3.6302  -3.6264  -3.6229  -3.5874
    -3.5806  -3.5649  -3.5353  -3.5331  -3.5068  -3.5040  -3.4848  -3.4839
    -3.4716  -3.4706  -3.4160  -3.4148  -3.3988  -3.3814  -3.3714  -3.3690
    -3.3685  -3.3678  -3.3407  -3.3405  -3.3045  -3.3017  -3.2822  -3.2817
    -3.2494  -3.2484  -3.2305  -3.2034  -3.2022  -3.1652  -3.1648  -3.1290
    -3.1212  -3.1209  -3.1076  -3.1066  -3.1019  -3.1006  -3.0644  -3.0534
    -3.0129  -3.0123  -3.0041  -2.9952  -2.9940  -2.9907  -2.9688  -2.9685
    -2.9478  -2.9473  -2.9457  -2.9201  -2.9199  -2.9122  -2.9100  -2.9083
    -2.8736  -2.8693  -2.8341  -2.8333  -2.8323  -2.8300  -2.8296  -2.7500
    -2.7402  -2.7366  -2.7353  -2.7347  -2.7345  -2.7301  -2.7291  -2.7288
    -2.7281  -2.7189  -2.7111  -2.6952  -2.6929  -2.6913  -2.6876  -2.6765
    -2.6738  -2.6336  -2.6327  -2.6322  -2.6292  -2.6265  -2.6103  -2.6092
    -2.6018  -2.6014  -2.5983  -2.5407  -2.5397  -2.5343  -2.5336  -2.5324
    -2.5270  -2.5006  -2.4413  -2.4408  -2.4391  -2.4378  -2.4278  -2.4262
    -2.4180  -2.4098  -2.4090  -2.3728  -2.3715  -2.3677  -2.3635  -2.3627
    -2.3608  -2.3240  -2.3217  -2.3154  -2.3121  -2.3119  -2.3107  -2.2680
    -2.2495  -2.2478  -2.1982  -2.1931  -2.1890  -2.1762  -2.1713  -2.1673
    -2.1218  -2.1196  -2.1116  -2.0946  -2.0811  -2.0650  -2.0648  -2.0566
    -2.0422  -2.0350  -2.0318  -2.0142  -1.9754  -1.9723  -1.9629  -1.9612
    -1.9603  -1.9493  -1.9455  -1.9353  -1.9315  -1.9313  -1.9275  -1.9252
    -1.9234  -1.9230  -1.9119  -1.9107  -1.8936  -1.8927  -1.8917  -1.8840
    -1.8818  -1.8783  -1.8584  -1.8579  -1.8465  -1.8442  -1.8395  -1.8359
    -1.8001  -1.7684  -1.7656  -1.7319  -1.7152  -1.7149  -1.7038  -1.7009
    -1.6809  -1.6803  -1.6659  -1.6652  -1.6637  -1.6630  -1.6594  -1.6474
    -1.6281  -1.6271  -1.6253  -1.5819  -1.5799  -1.5413  -1.5410  -1.4945
    -1.4939  -1.4809  -1.4590  -1.4531  -1.4518  -1.4348  -1.4325  -1.4165
    -1.4163  -1.4116  -1.4114  -1.4105  -1.4097  -1.4047  -1.4036  -1.3857
    -1.3847  -1.3716  -1.3581  -1.3396  -1.3377  -1.3132  -1.3120  -1.3105
    -1.3099  -1.3064  -1.3001  -1.2807  -1.2802  -1.2664  -1.2608  -1.2505
    -1.2435  -1.2295  -1.2254  -1.1989  -1.1983  -1.1909  -1.1881  -1.1548
    -1.1546  -1.1462  -1.1442  -1.1373  -1.1335  -1.1156  -1.1155  -1.1040
    -1.0967  -1.0959  -1.0845  -1.0838  -1.0827  -1.0772  -1.0688  -1.0582
    -1.0565  -1.0494  -1.0490  -1.0380  -1.0322  -1.0266  -1.0264  -0.9864
    -0.9853  -0.9782  -0.9780  -0.9767  -0.9715  -0.9379  -0.9216  -0.9211
    -0.9199  -0.9184  -0.9134  -0.9100  -0.9098  -0.8951  -0.8906  -0.8595
    -0.8536  -0.8511  -0.8488  -0.8282  -0.8276  -0.8183  -0.7887  -0.7810
    -0.7537  -0.7528  -0.7256  -0.7252  -0.7215  -0.7211  -0.7205  -0.7159
    -0.7111  -0.7098  -0.7070  -0.7065  -0.6747  -0.6742  -0.6576  -0.6539
    -0.6513  -0.6508  -0.6487  -0.6339  -0.6302  -0.3542  -0.3447  -0.2915
    -0.2738  -0.2476  -0.0893  -0.0235  -0.0225   0.0143   0.2955   0.3006
     0.6223   0.6369   0.7250   0.7253   0.7646   0.7685   0.9075   0.9197
     1.0343   1.0364   1.1243   1.7200   1.7394   1.7404   1.7791   1.7839
     1.8187   1.8370   1.9070   1.9197   2.1158   2.1193   2.3499   2.4270
     2.4422   2.4481   2.8200   2.8378   2.9018   2.9040   2.9091   2.9122
     3.0606   3.0622   3.0835   3.1988   3.2088   3.4330   3.4407   3.5708
     3.5965   3.6061   3.8659   3.8730   3.9630   3.9958   4.0020   4.0135
     4.0504   4.1867   4.1897   4.4253   4.4258   4.4880   4.5132   4.6045
     4.6366   4.6410   4.6545   4.6920   4.8399   5.3983   5.4165   5.4379
     5.5583   5.5676   5.6083   5.6850   5.7465   5.7490   5.7566   5.8611
     5.8619   5.9168   5.9171   5.9576   5.9913   6.0390   6.0735   6.1709
     6.1878   6.2033   6.2262   6.2410   6.2526   6.2554   6.2585   6.2704

          k = 0.2500 0.2500-0.2500 (167588 PWs)   bands (ev):

   -20.0451  -7.8355  -6.7040  -6.1758  -6.1750  -5.7458  -5.3407  -5.2440
    -5.2438  -5.0479  -5.0470  -4.9405  -4.9307  -4.8505  -4.8320  -4.7561
    -4.6696  -4.6685  -4.6365  -4.6271  -4.5106  -4.4652  -4.4489  -4.4475
    -4.4413  -4.4391  -4.3856  -4.3814  -4.3742  -4.3677  -4.3364  -4.3250
    -4.3076  -4.2817  -4.2743  -4.2482  -4.2470  -4.1959  -4.1939  -4.1836
    -4.1825  -4.1776  -4.1644  -4.1618  -4.1225  -4.1048  -4.1047  -4.0984
    -4.0973  -4.0647  -4.0149  -4.0013  -4.0001  -3.9974  -3.9938  -3.9860
    -3.9836  -3.9828  -3.9793  -3.9194  -3.9165  -3.8687  -3.8633  -3.8551
    -3.8297  -3.8292  -3.8083  -3.8065  -3.8035  -3.8025  -3.7996  -3.7504
    -3.7488  -3.7377  -3.7366  -3.6328  -3.6302  -3.6264  -3.6229  -3.5874
    -3.5806  -3.5649  -3.5353  -3.5331  -3.5068  -3.5040  -3.4848  -3.4839
    -3.4716  -3.4705  -3.4160  -3.4148  -3.3988  -3.3814  -3.3714  -3.3690
    -3.3685  -3.3678  -3.3407  -3.3405  -3.3045  -3.3017  -3.2822  -3.2817
    -3.2494  -3.2484  -3.2305  -3.2034  -3.2022  -3.1652  -3.1648  -3.1290
    -3.1212  -3.1209  -3.1076  -3.1066  -3.1019  -3.1006  -3.0644  -3.0534
    -3.0129  -3.0123  -3.0041  -2.9952  -2.9940  -2.9907  -2.9688  -2.9685
    -2.9478  -2.9473  -2.9457  -2.9201  -2.9198  -2.9122  -2.9100  -2.9083
    -2.8736  -2.8693  -2.8341  -2.8333  -2.8323  -2.8300  -2.8296  -2.7500
    -2.7402  -2.7366  -2.7353  -2.7347  -2.7345  -2.7301  -2.7291  -2.7288
    -2.7281  -2.7189  -2.7111  -2.6952  -2.6929  -2.6913  -2.6876  -2.6765
    -2.6738  -2.6336  -2.6327  -2.6322  -2.6292  -2.6264  -2.6103  -2.6092
    -2.6018  -2.6014  -2.5983  -2.5407  -2.5397  -2.5343  -2.5336  -2.5324
    -2.5270  -2.5006  -2.4413  -2.4408  -2.4390  -2.4378  -2.4278  -2.4262
    -2.4180  -2.4098  -2.4090  -2.3728  -2.3715  -2.3677  -2.3635  -2.3627
    -2.3608  -2.3240  -2.3217  -2.3154  -2.3121  -2.3119  -2.3107  -2.2680
    -2.2495  -2.2478  -2.1982  -2.1931  -2.1890  -2.1762  -2.1713  -2.1673
    -2.1218  -2.1196  -2.1116  -2.0946  -2.0811  -2.0650  -2.0648  -2.0566
    -2.0422  -2.0350  -2.0318  -2.0142  -1.9753  -1.9723  -1.9629  -1.9612
    -1.9603  -1.9493  -1.9455  -1.9353  -1.9315  -1.9313  -1.9275  -1.9253
    -1.9234  -1.9230  -1.9119  -1.9107  -1.8936  -1.8927  -1.8917  -1.8840
    -1.8818  -1.8783  -1.8584  -1.8579  -1.8465  -1.8442  -1.8395  -1.8359
    -1.8001  -1.7684  -1.7656  -1.7320  -1.7152  -1.7149  -1.7038  -1.7009
    -1.6809  -1.6803  -1.6659  -1.6652  -1.6637  -1.6630  -1.6594  -1.6474
    -1.6281  -1.6271  -1.6253  -1.5819  -1.5799  -1.5413  -1.5410  -1.4945
    -1.4939  -1.4809  -1.4590  -1.4531  -1.4518  -1.4348  -1.4325  -1.4165
    -1.4163  -1.4116  -1.4114  -1.4105  -1.4098  -1.4047  -1.4036  -1.3857
    -1.3847  -1.3716  -1.3581  -1.3396  -1.3377  -1.3132  -1.3120  -1.3105
    -1.3099  -1.3064  -1.3001  -1.2807  -1.2802  -1.2664  -1.2608  -1.2505
    -1.2436  -1.2295  -1.2254  -1.1989  -1.1983  -1.1909  -1.1881  -1.1548
    -1.1546  -1.1462  -1.1442  -1.1373  -1.1335  -1.1156  -1.1155  -1.1040
    -1.0967  -1.0959  -1.0845  -1.0838  -1.0827  -1.0772  -1.0688  -1.0582
    -1.0565  -1.0494  -1.0490  -1.0380  -1.0322  -1.0266  -1.0264  -0.9864
    -0.9853  -0.9782  -0.9780  -0.9767  -0.9715  -0.9379  -0.9216  -0.9211
    -0.9199  -0.9184  -0.9133  -0.9100  -0.9098  -0.8951  -0.8906  -0.8595
    -0.8536  -0.8511  -0.8488  -0.8282  -0.8276  -0.8183  -0.7887  -0.7810
    -0.7537  -0.7528  -0.7256  -0.7252  -0.7215  -0.7211  -0.7205  -0.7159
    -0.7111  -0.7098  -0.7070  -0.7065  -0.6747  -0.6742  -0.6576  -0.6539
    -0.6513  -0.6508  -0.6487  -0.6339  -0.6302  -0.3542  -0.3447  -0.2915
    -0.2738  -0.2476  -0.0893  -0.0235  -0.0225   0.0143   0.2955   0.3006
     0.6223   0.6369   0.7250   0.7253   0.7646   0.7685   0.9075   0.9197
     1.0343   1.0364   1.1243   1.7200   1.7394   1.7404   1.7791   1.7839
     1.8187   1.8370   1.9070   1.9197   2.1158   2.1193   2.3499   2.4270
     2.4422   2.4481   2.8200   2.8378   2.9018   2.9040   2.9091   2.9122
     3.0606   3.0622   3.0835   3.1988   3.2088   3.4330   3.4407   3.5708
     3.5965   3.6061   3.8659   3.8730   3.9631   3.9958   4.0020   4.0135
     4.0505   4.1867   4.1897   4.4253   4.4258   4.4878   4.5132   4.6037
     4.6366   4.6410   4.6545   4.6919   4.8389   5.3934   5.4124   5.4171
     5.5581   5.5671   5.6600   5.7002   5.7464   5.7509   5.7575   5.8611
     5.8615   5.9170   5.9171   5.9578   5.9718   6.0589   6.1048   6.1560
     6.2028   6.2276   6.2355   6.2406   6.2513   6.2557   6.2585   6.2758

          k =-0.2500-0.2500 0.0833 (167653 PWs)   bands (ev):

   -20.0451  -7.8355  -6.7040  -6.1758  -6.1750  -5.7458  -5.3407  -5.2440
    -5.2438  -5.0479  -5.0470  -4.9405  -4.9307  -4.8505  -4.8320  -4.7561
    -4.6696  -4.6685  -4.6365  -4.6271  -4.5106  -4.4652  -4.4489  -4.4475
    -4.4413  -4.4391  -4.3856  -4.3814  -4.3742  -4.3677  -4.3364  -4.3250
    -4.3076  -4.2817  -4.2743  -4.2482  -4.2470  -4.1959  -4.1939  -4.1836
    -4.1825  -4.1776  -4.1644  -4.1618  -4.1225  -4.1048  -4.1047  -4.0984
    -4.0973  -4.0647  -4.0149  -4.0013  -4.0001  -3.9974  -3.9938  -3.9860
    -3.9836  -3.9828  -3.9793  -3.9194  -3.9165  -3.8687  -3.8633  -3.8551
    -3.8297  -3.8292  -3.8083  -3.8065  -3.8035  -3.8025  -3.7996  -3.7504
    -3.7488  -3.7377  -3.7366  -3.6328  -3.6302  -3.6264  -3.6229  -3.5874
    -3.5806  -3.5649  -3.5353  -3.5331  -3.5068  -3.5040  -3.4848  -3.4839
    -3.4716  -3.4706  -3.4160  -3.4148  -3.3988  -3.3814  -3.3714  -3.3690
    -3.3685  -3.3678  -3.3407  -3.3405  -3.3045  -3.3017  -3.2822  -3.2817
    -3.2494  -3.2484  -3.2305  -3.2034  -3.2022  -3.1652  -3.1648  -3.1290
    -3.1212  -3.1209  -3.1076  -3.1066  -3.1019  -3.1006  -3.0644  -3.0534
    -3.0129  -3.0123  -3.0041  -2.9952  -2.9940  -2.9907  -2.9688  -2.9685
    -2.9478  -2.9473  -2.9457  -2.9201  -2.9199  -2.9122  -2.9100  -2.9083
    -2.8736  -2.8693  -2.8341  -2.8333  -2.8323  -2.8300  -2.8296  -2.7500
    -2.7402  -2.7366  -2.7353  -2.7347  -2.7345  -2.7301  -2.7291  -2.7288
    -2.7281  -2.7189  -2.7111  -2.6952  -2.6929  -2.6913  -2.6876  -2.6765
    -2.6738  -2.6336  -2.6327  -2.6322  -2.6292  -2.6265  -2.6103  -2.6092
    -2.6018  -2.6014  -2.5983  -2.5407  -2.5397  -2.5343  -2.5336  -2.5324
    -2.5270  -2.5006  -2.4413  -2.4408  -2.4391  -2.4378  -2.4278  -2.4262
    -2.4180  -2.4098  -2.4090  -2.3728  -2.3715  -2.3677  -2.3635  -2.3627
    -2.3608  -2.3240  -2.3217  -2.3154  -2.3121  -2.3119  -2.3107  -2.2680
    -2.2495  -2.2478  -2.1982  -2.1931  -2.1890  -2.1762  -2.1713  -2.1673
    -2.1218  -2.1196  -2.1116  -2.0946  -2.0811  -2.0650  -2.0648  -2.0566
    -2.0422  -2.0350  -2.0318  -2.0142  -1.9754  -1.9723  -1.9629  -1.9612
    -1.9603  -1.9493  -1.9455  -1.9353  -1.9315  -1.9313  -1.9275  -1.9252
    -1.9234  -1.9230  -1.9119  -1.9107  -1.8936  -1.8927  -1.8917  -1.8840
    -1.8818  -1.8783  -1.8584  -1.8579  -1.8465  -1.8442  -1.8395  -1.8359
    -1.8001  -1.7684  -1.7656  -1.7319  -1.7152  -1.7149  -1.7038  -1.7009
    -1.6809  -1.6803  -1.6659  -1.6652  -1.6637  -1.6630  -1.6594  -1.6474
    -1.6281  -1.6271  -1.6253  -1.5819  -1.5799  -1.5413  -1.5410  -1.4945
    -1.4939  -1.4809  -1.4590  -1.4531  -1.4518  -1.4348  -1.4325  -1.4165
    -1.4163  -1.4116  -1.4114  -1.4105  -1.4097  -1.4047  -1.4036  -1.3857
    -1.3847  -1.3716  -1.3581  -1.3396  -1.3377  -1.3132  -1.3120  -1.3105
    -1.3099  -1.3064  -1.3001  -1.2807  -1.2802  -1.2664  -1.2608  -1.2505
    -1.2435  -1.2295  -1.2254  -1.1989  -1.1983  -1.1909  -1.1881  -1.1548
    -1.1546  -1.1462  -1.1442  -1.1373  -1.1335  -1.1156  -1.1155  -1.1040
    -1.0967  -1.0959  -1.0845  -1.0838  -1.0827  -1.0772  -1.0688  -1.0582
    -1.0565  -1.0494  -1.0490  -1.0380  -1.0322  -1.0266  -1.0264  -0.9864
    -0.9853  -0.9782  -0.9780  -0.9767  -0.9715  -0.9379  -0.9216  -0.9211
    -0.9199  -0.9184  -0.9134  -0.9100  -0.9098  -0.8951  -0.8906  -0.8595
    -0.8536  -0.8511  -0.8488  -0.8282  -0.8276  -0.8183  -0.7887  -0.7810
    -0.7537  -0.7528  -0.7256  -0.7252  -0.7215  -0.7211  -0.7205  -0.7159
    -0.7111  -0.7098  -0.7070  -0.7065  -0.6747  -0.6742  -0.6576  -0.6539
    -0.6513  -0.6508  -0.6487  -0.6339  -0.6302  -0.3542  -0.3447  -0.2915
    -0.2738  -0.2476  -0.0893  -0.0235  -0.0225   0.0143   0.2955   0.3006
     0.6223   0.6369   0.7250   0.7253   0.7646   0.7685   0.9075   0.9197
     1.0343   1.0364   1.1243   1.7200   1.7394   1.7404   1.7791   1.7839
     1.8187   1.8370   1.9070   1.9197   2.1158   2.1193   2.3499   2.4270
     2.4422   2.4481   2.8200   2.8378   2.9018   2.9040   2.9091   2.9122
     3.0606   3.0622   3.0835   3.1988   3.2088   3.4330   3.4407   3.5708
     3.5965   3.6061   3.8659   3.8730   3.9630   3.9958   4.0020   4.0135
     4.0504   4.1867   4.1897   4.4253   4.4258   4.4880   4.5132   4.6045
     4.6366   4.6410   4.6545   4.6920   4.8399   5.3983   5.4165   5.4377
     5.5583   5.5677   5.6089   5.6850   5.7465   5.7489   5.7566   5.8611
     5.8619   5.9168   5.9171   5.9576   5.9917   6.0369   6.0736   6.1709
     6.1881   6.2041   6.2264   6.2410   6.2525   6.2554   6.2585   6.2705

          k =-0.2500 0.2500-0.0833 (167653 PWs)   bands (ev):

   -20.0451  -7.8355  -6.7040  -6.1764  -6.1744  -5.7458  -5.3407  -5.2445
    -5.2434  -5.0480  -5.0469  -4.9396  -4.9315  -4.8505  -4.8320  -4.7561
    -4.6696  -4.6685  -4.6365  -4.6272  -4.5102  -4.4652  -4.4494  -4.4471
    -4.4413  -4.4390  -4.3856  -4.3813  -4.3748  -4.3672  -4.3363  -4.3258
    -4.3073  -4.2818  -4.2742  -4.2482  -4.2470  -4.1966  -4.1932  -4.1836
    -4.1825  -4.1776  -4.1644  -4.1618  -4.1227  -4.1052  -4.1044  -4.0986
    -4.0970  -4.0649  -4.0152  -4.0018  -3.9996  -3.9977  -3.9932  -3.9856
    -3.9836  -3.9829  -3.9792  -3.9200  -3.9154  -3.8694  -3.8630  -3.8554
    -3.8297  -3.8289  -3.8080  -3.8068  -3.8029  -3.8026  -3.7995  -3.7503
    -3.7489  -3.7381  -3.7362  -3.6335  -3.6298  -3.6271  -3.6227  -3.5875
    -3.5806  -3.5649  -3.5352  -3.5332  -3.5074  -3.5035  -3.4851  -3.4838
    -3.4723  -3.4701  -3.4163  -3.4146  -3.3982  -3.3814  -3.3711  -3.3691
    -3.3683  -3.3679  -3.3408  -3.3405  -3.3042  -3.3017  -3.2824  -3.2819
    -3.2490  -3.2489  -3.2305  -3.2028  -3.2024  -3.1657  -3.1645  -3.1294
    -3.1212  -3.1208  -3.1079  -3.1071  -3.1020  -3.1004  -3.0643  -3.0534
    -3.0127  -3.0125  -3.0041  -2.9948  -2.9946  -2.9904  -2.9690  -2.9685
    -2.9485  -2.9474  -2.9448  -2.9198  -2.9198  -2.9123  -2.9096  -2.9085
    -2.8734  -2.8692  -2.8344  -2.8335  -2.8324  -2.8299  -2.8298  -2.7500
    -2.7403  -2.7373  -2.7352  -2.7343  -2.7340  -2.7301  -2.7291  -2.7290
    -2.7278  -2.7189  -2.7111  -2.6957  -2.6922  -2.6914  -2.6876  -2.6765
    -2.6722  -2.6335  -2.6329  -2.6320  -2.6299  -2.6276  -2.6107  -2.6089
    -2.6018  -2.6012  -2.5983  -2.5405  -2.5400  -2.5343  -2.5337  -2.5297
    -2.5271  -2.5015  -2.4410  -2.4406  -2.4388  -2.4377  -2.4263  -2.4253
    -2.4180  -2.4092  -2.4090  -2.3736  -2.3732  -2.3656  -2.3646  -2.3628
    -2.3605  -2.3236  -2.3220  -2.3155  -2.3126  -2.3116  -2.3105  -2.2712
    -2.2619  -2.2493  -2.1990  -2.1938  -2.1895  -2.1745  -2.1715  -2.1687
    -2.1372  -2.1211  -2.0963  -2.0955  -2.0668  -2.0658  -2.0647  -2.0538
    -2.0423  -2.0345  -2.0323  -2.0142  -1.9767  -1.9733  -1.9616  -1.9608
    -1.9507  -1.9496  -1.9489  -1.9344  -1.9342  -1.9309  -1.9288  -1.9271
    -1.9237  -1.9174  -1.9113  -1.9097  -1.8939  -1.8918  -1.8857  -1.8835
    -1.8822  -1.8813  -1.8579  -1.8567  -1.8460  -1.8453  -1.8414  -1.8331
    -1.7999  -1.7695  -1.7646  -1.7319  -1.7159  -1.7135  -1.7050  -1.7034
    -1.6819  -1.6719  -1.6667  -1.6661  -1.6644  -1.6631  -1.6617  -1.6600
    -1.6286  -1.6272  -1.6245  -1.5828  -1.5788  -1.5417  -1.5414  -1.4948
    -1.4926  -1.4807  -1.4592  -1.4526  -1.4519  -1.4347  -1.4340  -1.4172
    -1.4145  -1.4123  -1.4109  -1.4108  -1.4074  -1.4068  -1.4023  -1.3860
    -1.3856  -1.3710  -1.3583  -1.3401  -1.3394  -1.3134  -1.3125  -1.3106
    -1.3096  -1.3052  -1.2976  -1.2832  -1.2787  -1.2688  -1.2605  -1.2479
    -1.2436  -1.2304  -1.2247  -1.1988  -1.1987  -1.1912  -1.1875  -1.1562
    -1.1520  -1.1466  -1.1435  -1.1385  -1.1330  -1.1160  -1.1146  -1.1044
    -1.0973  -1.0955  -1.0848  -1.0847  -1.0825  -1.0760  -1.0692  -1.0576
    -1.0559  -1.0499  -1.0488  -1.0370  -1.0347  -1.0270  -1.0267  -0.9874
    -0.9838  -0.9781  -0.9775  -0.9770  -0.9720  -0.9380  -0.9228  -0.9202
    -0.9199  -0.9177  -0.9172  -0.9101  -0.9092  -0.8952  -0.8898  -0.8604
    -0.8530  -0.8512  -0.8478  -0.8285  -0.8271  -0.8184  -0.7890  -0.7813
    -0.7541  -0.7522  -0.7255  -0.7254  -0.7216  -0.7211  -0.7204  -0.7157
    -0.7112  -0.7098  -0.7068  -0.7060  -0.6754  -0.6735  -0.6593  -0.6540
    -0.6515  -0.6505  -0.6504  -0.6305  -0.6302  -0.3542  -0.3447  -0.2946
    -0.2709  -0.2477  -0.0877  -0.0242  -0.0212   0.0146   0.2936   0.3025
     0.6195   0.6393   0.7241   0.7268   0.7633   0.7710   0.9035   0.9227
     1.0342   1.0360   1.1252   1.7214   1.7399   1.7400   1.7762   1.7838
     1.8122   1.8416   1.9044   1.9241   2.1142   2.1208   2.3489   2.4241
     2.4438   2.4490   2.8148   2.8381   2.9008   2.9052   2.9083   2.9138
     3.0613   3.0615   3.0795   3.1941   3.2212   3.4324   3.4499   3.5703
     3.5943   3.6075   3.8625   3.8784   3.9778   4.0014   4.0018   4.0089
     4.0346   4.1852   4.1918   4.4254   4.4267   4.4990   4.5091   4.5530
     4.6352   4.6419   4.6485   4.6959   4.8847   5.3664   5.4289   5.4991
     5.5219   5.5832   5.5967   5.6301   5.7440   5.7558   5.7594   5.8577
     5.8638   5.9156   5.9199   5.9621   6.0140   6.0163   6.1131   6.1379
     6.1903   6.2290   6.2383   6.2409   6.2427   6.2516   6.2670   6.2688

          k = 0.2500-0.2500-0.0833 (167653 PWs)   bands (ev):

   -20.0451  -7.8355  -6.7040  -6.1764  -6.1744  -5.7458  -5.3407  -5.2445
    -5.2434  -5.0480  -5.0469  -4.9396  -4.9315  -4.8505  -4.8320  -4.7561
    -4.6696  -4.6685  -4.6365  -4.6272  -4.5102  -4.4652  -4.4494  -4.4471
    -4.4413  -4.4390  -4.3856  -4.3813  -4.3748  -4.3672  -4.3363  -4.3258
    -4.3073  -4.2818  -4.2742  -4.2482  -4.2470  -4.1966  -4.1932  -4.1836
    -4.1825  -4.1776  -4.1644  -4.1618  -4.1227  -4.1052  -4.1044  -4.0986
    -4.0970  -4.0649  -4.0152  -4.0018  -3.9996  -3.9977  -3.9932  -3.9856
    -3.9836  -3.9829  -3.9792  -3.9200  -3.9154  -3.8694  -3.8630  -3.8554
    -3.8297  -3.8289  -3.8080  -3.8068  -3.8029  -3.8026  -3.7995  -3.7503
    -3.7489  -3.7381  -3.7362  -3.6335  -3.6298  -3.6271  -3.6227  -3.5875
    -3.5806  -3.5649  -3.5352  -3.5332  -3.5074  -3.5035  -3.4851  -3.4838
    -3.4723  -3.4701  -3.4163  -3.4146  -3.3982  -3.3814  -3.3711  -3.3691
    -3.3683  -3.3679  -3.3408  -3.3405  -3.3042  -3.3017  -3.2824  -3.2819
    -3.2490  -3.2489  -3.2305  -3.2028  -3.2024  -3.1657  -3.1645  -3.1294
    -3.1212  -3.1208  -3.1079  -3.1071  -3.1020  -3.1004  -3.0643  -3.0534
    -3.0127  -3.0125  -3.0041  -2.9948  -2.9946  -2.9904  -2.9690  -2.9685
    -2.9485  -2.9474  -2.9448  -2.9198  -2.9198  -2.9123  -2.9096  -2.9085
    -2.8734  -2.8692  -2.8344  -2.8335  -2.8324  -2.8299  -2.8298  -2.7500
    -2.7403  -2.7373  -2.7352  -2.7343  -2.7340  -2.7301  -2.7291  -2.7290
    -2.7278  -2.7189  -2.7111  -2.6957  -2.6922  -2.6914  -2.6876  -2.6765
    -2.6722  -2.6335  -2.6329  -2.6320  -2.6299  -2.6276  -2.6107  -2.6089
    -2.6018  -2.6012  -2.5983  -2.5405  -2.5400  -2.5343  -2.5337  -2.5297
    -2.5271  -2.5015  -2.4410  -2.4406  -2.4388  -2.4377  -2.4263  -2.4253
    -2.4180  -2.4092  -2.4090  -2.3736  -2.3732  -2.3656  -2.3646  -2.3628
    -2.3605  -2.3236  -2.3220  -2.3155  -2.3126  -2.3116  -2.3105  -2.2712
    -2.2619  -2.2493  -2.1990  -2.1938  -2.1895  -2.1745  -2.1715  -2.1687
    -2.1372  -2.1211  -2.0963  -2.0955  -2.0668  -2.0658  -2.0647  -2.0538
    -2.0423  -2.0345  -2.0323  -2.0142  -1.9767  -1.9733  -1.9616  -1.9608
    -1.9507  -1.9496  -1.9489  -1.9344  -1.9342  -1.9309  -1.9288  -1.9271
    -1.9237  -1.9174  -1.9113  -1.9097  -1.8939  -1.8918  -1.8857  -1.8835
    -1.8822  -1.8813  -1.8579  -1.8567  -1.8460  -1.8453  -1.8414  -1.8331
    -1.7999  -1.7695  -1.7646  -1.7319  -1.7159  -1.7135  -1.7050  -1.7034
    -1.6819  -1.6719  -1.6667  -1.6661  -1.6644  -1.6631  -1.6617  -1.6600
    -1.6286  -1.6272  -1.6245  -1.5828  -1.5788  -1.5417  -1.5414  -1.4948
    -1.4926  -1.4807  -1.4592  -1.4526  -1.4519  -1.4347  -1.4340  -1.4172
    -1.4145  -1.4123  -1.4109  -1.4108  -1.4074  -1.4068  -1.4023  -1.3860
    -1.3856  -1.3710  -1.3583  -1.3401  -1.3394  -1.3134  -1.3125  -1.3106
    -1.3096  -1.3052  -1.2976  -1.2832  -1.2787  -1.2688  -1.2605  -1.2479
    -1.2436  -1.2304  -1.2247  -1.1988  -1.1987  -1.1912  -1.1875  -1.1562
    -1.1520  -1.1466  -1.1435  -1.1385  -1.1330  -1.1160  -1.1146  -1.1044
    -1.0973  -1.0955  -1.0848  -1.0847  -1.0825  -1.0760  -1.0692  -1.0576
    -1.0559  -1.0499  -1.0488  -1.0370  -1.0347  -1.0270  -1.0267  -0.9874
    -0.9838  -0.9781  -0.9775  -0.9770  -0.9720  -0.9380  -0.9228  -0.9202
    -0.9199  -0.9177  -0.9172  -0.9101  -0.9092  -0.8952  -0.8898  -0.8604
    -0.8530  -0.8512  -0.8478  -0.8285  -0.8271  -0.8184  -0.7890  -0.7813
    -0.7541  -0.7522  -0.7255  -0.7254  -0.7216  -0.7211  -0.7204  -0.7157
    -0.7112  -0.7098  -0.7068  -0.7060  -0.6754  -0.6735  -0.6593  -0.6540
    -0.6515  -0.6505  -0.6504  -0.6305  -0.6302  -0.3542  -0.3447  -0.2946
    -0.2709  -0.2477  -0.0877  -0.0242  -0.0212   0.0146   0.2936   0.3025
     0.6195   0.6393   0.7241   0.7268   0.7633   0.7710   0.9035   0.9227
     1.0342   1.0360   1.1252   1.7214   1.7399   1.7400   1.7762   1.7838
     1.8122   1.8416   1.9044   1.9241   2.1142   2.1208   2.3489   2.4241
     2.4438   2.4490   2.8148   2.8381   2.9008   2.9052   2.9083   2.9138
     3.0613   3.0615   3.0795   3.1941   3.2212   3.4324   3.4499   3.5703
     3.5943   3.6075   3.8625   3.8784   3.9778   4.0014   4.0018   4.0089
     4.0346   4.1852   4.1918   4.4254   4.4267   4.4990   4.5091   4.5530
     4.6352   4.6419   4.6485   4.6959   4.8847   5.3664   5.4289   5.4990
     5.5221   5.5832   5.5969   5.6300   5.7440   5.7559   5.7593   5.8577
     5.8638   5.9156   5.9199   5.9621   6.0140   6.0163   6.1127   6.1382
     6.1904   6.2292   6.2383   6.2410   6.2425   6.2516   6.2667   6.2688

          k =-0.2500 0.2500 0.2500 (167588 PWs)   bands (ev):

   -20.0451  -7.8355  -6.7040  -6.1764  -6.1744  -5.7458  -5.3407  -5.2445
    -5.2434  -5.0480  -5.0469  -4.9396  -4.9315  -4.8505  -4.8321  -4.7561
    -4.6696  -4.6685  -4.6365  -4.6272  -4.5102  -4.4652  -4.4494  -4.4471
    -4.4413  -4.4390  -4.3856  -4.3813  -4.3748  -4.3672  -4.3363  -4.3258
    -4.3073  -4.2818  -4.2742  -4.2482  -4.2470  -4.1966  -4.1932  -4.1836
    -4.1825  -4.1776  -4.1644  -4.1618  -4.1227  -4.1052  -4.1044  -4.0986
    -4.0970  -4.0649  -4.0152  -4.0018  -3.9996  -3.9977  -3.9932  -3.9856
    -3.9836  -3.9829  -3.9792  -3.9200  -3.9154  -3.8694  -3.8630  -3.8554
    -3.8297  -3.8289  -3.8080  -3.8068  -3.8029  -3.8026  -3.7995  -3.7503
    -3.7489  -3.7381  -3.7362  -3.6335  -3.6298  -3.6271  -3.6227  -3.5875
    -3.5806  -3.5649  -3.5352  -3.5332  -3.5074  -3.5035  -3.4851  -3.4838
    -3.4722  -3.4701  -3.4163  -3.4146  -3.3982  -3.3814  -3.3711  -3.3691
    -3.3683  -3.3679  -3.3408  -3.3405  -3.3042  -3.3016  -3.2824  -3.2819
    -3.2490  -3.2489  -3.2305  -3.2028  -3.2024  -3.1656  -3.1645  -3.1294
    -3.1212  -3.1208  -3.1079  -3.1071  -3.1020  -3.1004  -3.0644  -3.0535
    -3.0127  -3.0125  -3.0041  -2.9948  -2.9946  -2.9904  -2.9690  -2.9685
    -2.9485  -2.9474  -2.9448  -2.9198  -2.9198  -2.9123  -2.9096  -2.9085
    -2.8734  -2.8692  -2.8344  -2.8335  -2.8324  -2.8299  -2.8298  -2.7500
    -2.7403  -2.7373  -2.7352  -2.7343  -2.7340  -2.7301  -2.7291  -2.7290
    -2.7278  -2.7189  -2.7111  -2.6957  -2.6922  -2.6914  -2.6876  -2.6765
    -2.6722  -2.6335  -2.6329  -2.6320  -2.6299  -2.6276  -2.6107  -2.6089
    -2.6018  -2.6012  -2.5983  -2.5405  -2.5400  -2.5343  -2.5337  -2.5297
    -2.5271  -2.5015  -2.4410  -2.4406  -2.4388  -2.4377  -2.4263  -2.4253
    -2.4180  -2.4092  -2.4090  -2.3736  -2.3732  -2.3656  -2.3646  -2.3628
    -2.3605  -2.3236  -2.3220  -2.3155  -2.3126  -2.3116  -2.3105  -2.2712
    -2.2619  -2.2493  -2.1990  -2.1938  -2.1895  -2.1745  -2.1715  -2.1687
    -2.1372  -2.1211  -2.0963  -2.0955  -2.0667  -2.0658  -2.0647  -2.0538
    -2.0423  -2.0345  -2.0323  -2.0142  -1.9767  -1.9733  -1.9616  -1.9608
    -1.9507  -1.9496  -1.9489  -1.9344  -1.9342  -1.9309  -1.9288  -1.9271
    -1.9237  -1.9174  -1.9113  -1.9097  -1.8939  -1.8918  -1.8857  -1.8835
    -1.8822  -1.8813  -1.8579  -1.8567  -1.8460  -1.8453  -1.8414  -1.8331
    -1.7999  -1.7695  -1.7646  -1.7319  -1.7159  -1.7135  -1.7050  -1.7034
    -1.6819  -1.6719  -1.6667  -1.6661  -1.6644  -1.6631  -1.6617  -1.6599
    -1.6286  -1.6272  -1.6245  -1.5828  -1.5787  -1.5417  -1.5414  -1.4948
    -1.4926  -1.4807  -1.4592  -1.4526  -1.4519  -1.4347  -1.4340  -1.4172
    -1.4145  -1.4123  -1.4109  -1.4108  -1.4074  -1.4068  -1.4023  -1.3860
    -1.3856  -1.3710  -1.3583  -1.3401  -1.3394  -1.3134  -1.3125  -1.3106
    -1.3096  -1.3052  -1.2976  -1.2832  -1.2787  -1.2688  -1.2605  -1.2479
    -1.2436  -1.2304  -1.2247  -1.1988  -1.1987  -1.1912  -1.1875  -1.1562
    -1.1520  -1.1466  -1.1435  -1.1385  -1.1330  -1.1160  -1.1146  -1.1044
    -1.0973  -1.0955  -1.0848  -1.0847  -1.0825  -1.0760  -1.0692  -1.0576
    -1.0559  -1.0499  -1.0488  -1.0370  -1.0347  -1.0270  -1.0267  -0.9874
    -0.9838  -0.9781  -0.9775  -0.9770  -0.9720  -0.9380  -0.9228  -0.9202
    -0.9198  -0.9177  -0.9172  -0.9101  -0.9092  -0.8952  -0.8898  -0.8604
    -0.8530  -0.8512  -0.8478  -0.8285  -0.8271  -0.8184  -0.7890  -0.7813
    -0.7541  -0.7522  -0.7255  -0.7254  -0.7216  -0.7211  -0.7204  -0.7157
    -0.7112  -0.7098  -0.7068  -0.7060  -0.6754  -0.6735  -0.6593  -0.6540
    -0.6515  -0.6505  -0.6504  -0.6305  -0.6302  -0.3542  -0.3447  -0.2946
    -0.2709  -0.2477  -0.0877  -0.0242  -0.0212   0.0146   0.2936   0.3025
     0.6195   0.6393   0.7241   0.7268   0.7633   0.7710   0.9035   0.9227
     1.0342   1.0360   1.1252   1.7214   1.7399   1.7400   1.7762   1.7838
     1.8122   1.8417   1.9044   1.9241   2.1142   2.1208   2.3489   2.4241
     2.4438   2.4490   2.8148   2.8381   2.9008   2.9052   2.9083   2.9138
     3.0613   3.0615   3.0795   3.1941   3.2212   3.4324   3.4499   3.5703
     3.5943   3.6075   3.8625   3.8784   3.9778   4.0014   4.0019   4.0090
     4.0347   4.1853   4.1918   4.4254   4.4267   4.4987   4.5091   4.5525
     4.6352   4.6418   4.6485   4.6959   4.8831   5.3659   5.4109   5.4869
     5.5169   5.5821   5.5886   5.7363   5.7439   5.7485   5.7614   5.8575
     5.8645   5.9156   5.9199   5.9621   5.9826   6.0431   6.0730   6.2039
     6.2116   6.2172   6.2392   6.2458   6.2545   6.2547   6.2670   6.2687

     the Fermi energy is     0.9858 ev

!    total energy              =   -7425.29575375 Ry
     Harris-Foulkes estimate   =   -7425.29575375 Ry
     estimated scf accuracy    <          2.6E-09 Ry

     The total energy is the sum of the following terms:

     one-electron contribution =  -48771.51516382 Ry
     hartree contribution      =   24939.87181517 Ry
     xc contribution           =   -3604.21873190 Ry
     ewald contribution        =   20010.56909637 Ry
     smearing contrib. (-TS)   =      -0.00276957 Ry

     convergence has been achieved in  26 iterations

     Writing output data file 5918668.save

     init_run     :    129.97s CPU    137.05s WALL (       1 calls)
     electrons    :   6585.47s CPU   6905.30s WALL (       1 calls)

     Called by init_run:
     wfcinit      :    101.54s CPU    107.43s WALL (       1 calls)
     potinit      :      6.15s CPU      6.71s WALL (       1 calls)

     Called by electrons:
     c_bands      :   5449.22s CPU   5700.02s WALL (      27 calls)
     sum_band     :    770.97s CPU    825.22s WALL (      27 calls)
     v_of_rho     :     93.95s CPU    103.71s WALL (      27 calls)
     newd         :    279.23s CPU    284.27s WALL (      27 calls)
     mix_rho      :      2.97s CPU      3.32s WALL (      27 calls)
     vdW_energy   :      7.24s CPU      7.77s WALL (      27 calls)
     vdW_ffts     :     47.70s CPU     52.70s WALL (      54 calls)
     vdW_v        :     11.52s CPU     12.38s WALL (      27 calls)

     Called by c_bands:
     init_us_2    :      8.35s CPU      8.61s WALL (     330 calls)
     cegterg      :   5288.34s CPU   5537.19s WALL (     162 calls)

     Called by *egterg:
     h_psi        :   2093.20s CPU   2315.58s WALL (     899 calls)
     s_psi        :    207.35s CPU    208.80s WALL (     899 calls)
     g_psi        :      4.82s CPU      4.86s WALL (     731 calls)
     cdiaghg      :   1335.25s CPU   1339.60s WALL (     887 calls)

     Called by h_psi:
     add_vuspsi   :    207.27s CPU    209.15s WALL (     899 calls)

     General routines
     calbec       :    601.92s CPU    604.26s WALL (    1061 calls)
     fft          :    146.38s CPU    156.22s WALL (    1782 calls)
     ffts         :      1.12s CPU      1.32s WALL (      54 calls)
     fftw         :   1612.79s CPU   1859.25s WALL (  443452 calls)
     interpolate  :      2.92s CPU      3.48s WALL (      54 calls)
     davcio       :      0.01s CPU      0.10s WALL (       6 calls)

     Parallel routines
     fft_scatter  :   1266.93s CPU   1465.44s WALL (  445288 calls)

     PWSCF        :     1h52m CPU        1h57m WALL


   This run was terminated on:  16:32:13  29Aug2015            

=------------------------------------------------------------------------------=
   JOB DONE.
=------------------------------------------------------------------------------=
