Setting SGE environment for SCC

     Program PWSCF v.5.1.2 starts on 25Jun2015 at  0: 4:40 

     This program is part of the open-source Quantum ESPRESSO suite
     for quantum simulation of materials; please cite
         "P. Giannozzi et al., J. Phys.:Condens. Matter 21 395502 (2009);
          URL http://www.quantum-espresso.org", 
     in publications or presentations arising from this work. More details at
     http://www.quantum-espresso.org/quote

     Parallel version (MPI), running on    32 processors
     R & G space division:  proc/nbgrp/npool/nimage =      32
     Reading input from top.O1.Au62.d.3.0.phi.25.psi.90.in
Warning: card &IONS ignored
Warning: card / ignored
Warning: card &CELL ignored
Warning: card / ignored

     Current dimensions of program PWSCF are:
     Max number of different atomic species (ntypx) = 10
     Max number of k-points (npk) =  40000
     Max angular momentum in pseudopotentials (lmaxx) =  3

     IMPORTANT: XC functional enforced from input :
     Exchange-correlation      = VDW-DF ( 1  4  4  0 1 0)
     Any further DFT definition will be discarded
     Please, verify this is what you really want


     Subspace diagonalization in iterative solution of the eigenvalue problem:
     a serial algorithm will be used


     Parallelization info
     --------------------
     sticks:   dense  smooth     PW     G-vecs:    dense   smooth      PW
     Min         578     289     74               118518    41891    5486
     Max         579     290     75               118533    41932    5497
     Sum       18505    9265   2385              3792731  1341081  175711


     Title: 
     top.O1.Au62.d.3.0.phi.25.psi.90                                            


     bravais-lattice index     =            8
     lattice parameter (alat)  =      24.1233  a.u.
     unit-cell volume          =   28076.2361 (a.u.)^3
     number of atoms/cell      =           75
     number of atomic types    =            3
     number of electrons       =       800.00
     number of Kohn-Sham states=          480
     kinetic-energy cutoff     =      50.0000  Ry
     charge density cutoff     =     400.0000  Ry
     convergence threshold     =      1.0E-08
     mixing beta               =       0.7000
     number of iterations used =            8  plain     mixing
     Exchange-correlation      = VDW-DF ( 1  4  4  0 1 0)

     celldm(1)=  24.123277  celldm(2)=   1.000000  celldm(3)=   2.000000
     celldm(4)=   0.000000  celldm(5)=   0.000000  celldm(6)=   0.000000

     crystal axes: (cart. coord. in units of alat)
               a(1) = (   1.000000   0.000000   0.000000 )  
               a(2) = (   0.000000   1.000000   0.000000 )  
               a(3) = (   0.000000   0.000000   2.000000 )  

     reciprocal axes: (cart. coord. in units 2 pi/alat)
               b(1) = (  1.000000  0.000000  0.000000 )  
               b(2) = (  0.000000  1.000000  0.000000 )  
               b(3) = (  0.000000  0.000000  0.500000 )  


     PseudoPot. # 1 for Au read from file:
     /home/scc/andrejb/qe/pseudo/Au.pbe-nd-van.UPF
     MD5 check sum: 458681b50f36d87ef23c61b04bba420a
     Pseudo is Ultrasoft + core correction, Zval = 11.0
     Generated by new atomic code, or converted to UPF format
     Using radial grid of  985 points,  3 beta functions with: 
                l(1) =   1
                l(2) =   2
                l(3) =   2
     Q(r) pseudized with  8 coefficients,  rinner =    1.100   1.100   1.100
                                                       1.100   1.100

     PseudoPot. # 2 for H  read from file:
     /home/scc/andrejb/qe/pseudo/H.pbe-van_ak.UPF
     MD5 check sum: 403db7282739603aa925980fa9b8608d
     Pseudo is Ultrasoft, Zval =  1.0
     Generated by new atomic code, or converted to UPF format
     Using radial grid of  615 points,  1 beta functions with: 
                l(1) =   0
     Q(r) pseudized with  8 coefficients,  rinner =    0.800

     PseudoPot. # 3 for O  read from file:
     /home/scc/andrejb/qe/pseudo/O.pbe-van_ak.UPF
     MD5 check sum: 4b8c549914a63cae506c6ff22b5af4fe
     Pseudo is Ultrasoft, Zval =  6.0
     Generated by new atomic code, or converted to UPF format
     Using radial grid of  737 points,  4 beta functions with: 
                l(1) =   0
                l(2) =   0
                l(3) =   1
                l(4) =   1
     Q(r) pseudized with  8 coefficients,  rinner =    0.800   0.800   0.800


     vdW kernel table read from file vdW_kernel_table
     MD5 check sum: 48e77a2e26edf626eeb0eaa751ad5cac

     atomic species   valence    mass     pseudopotential
        Au            11.00   196.96657     Au( 1.00)
        H              1.00     1.01000     H ( 1.00)
        O              6.00    16.00000     O ( 1.00)

     No symmetry found



   Cartesian axes

     site n.     atom                  positions (alat units)
         1           O   tau(   1) = (   0.4998324   0.3332216   0.7343272  )
         2           H   tau(   2) = (   0.4742046   0.2877277   0.6787041  )
         3           H   tau(   3) = (   0.5246755   0.2853639   0.7882799  )
         4           Au  tau(   4) = (   0.0000000   0.0000000   0.0000000  )
         5           Au  tau(   5) = (   0.3332217   0.0000000   0.0000000  )
         6           Au  tau(   6) = (   0.6664435   0.0000000   0.0000000  )
         7           Au  tau(   7) = (   0.1666109   0.1666109   0.0000000  )
         8           Au  tau(   8) = (   0.4998326   0.1666109   0.0000000  )
         9           Au  tau(   9) = (   0.8330542   0.1666109   0.0000000  )
        10           Au  tau(  10) = (   0.0000000   0.3332217   0.0000000  )
        11           Au  tau(  11) = (   0.3332217   0.3332217   0.0000000  )
        12           Au  tau(  12) = (   0.6664435   0.3332217   0.0000000  )
        13           Au  tau(  13) = (   0.1666109   0.4998326   0.0000000  )
        14           Au  tau(  14) = (   0.4998326   0.4998326   0.0000000  )
        15           Au  tau(  15) = (   0.8330542   0.4998326   0.0000000  )
        16           Au  tau(  16) = (   0.0000000   0.6664435   0.0000000  )
        17           Au  tau(  17) = (   0.3332217   0.6664435   0.0000000  )
        18           Au  tau(  18) = (   0.6664435   0.6664435   0.0000000  )
        19           Au  tau(  19) = (   0.1666109   0.8330542   0.0000000  )
        20           Au  tau(  20) = (   0.4998326   0.8330542   0.0000000  )
        21           Au  tau(  21) = (   0.8330542   0.8330542   0.0000000  )
        22           Au  tau(  22) = (   0.1666109   0.0000000   0.1666109  )
        23           Au  tau(  23) = (   0.4998326   0.0000000   0.1666109  )
        24           Au  tau(  24) = (   0.8330542   0.0000000   0.1666109  )
        25           Au  tau(  25) = (   0.0000000   0.1666109   0.1666109  )
        26           Au  tau(  26) = (   0.3332217   0.1666109   0.1666109  )
        27           Au  tau(  27) = (   0.6664435   0.1666109   0.1666109  )
        28           Au  tau(  28) = (   0.1666109   0.3332217   0.1666109  )
        29           Au  tau(  29) = (   0.4998326   0.3332217   0.1666109  )
        30           Au  tau(  30) = (   0.8330542   0.3332217   0.1666109  )
        31           Au  tau(  31) = (   0.0000000   0.4998326   0.1666109  )
        32           Au  tau(  32) = (   0.3332217   0.4998326   0.1666109  )
        33           Au  tau(  33) = (   0.6664435   0.4998326   0.1666109  )
        34           Au  tau(  34) = (   0.1666109   0.6664435   0.1666109  )
        35           Au  tau(  35) = (   0.4998326   0.6664435   0.1666109  )
        36           Au  tau(  36) = (   0.8330542   0.6664435   0.1666109  )
        37           Au  tau(  37) = (   0.0000000   0.8330542   0.1666109  )
        38           Au  tau(  38) = (   0.3332217   0.8330542   0.1666109  )
        39           Au  tau(  39) = (   0.6664435   0.8330542   0.1666109  )
        40           Au  tau(  40) = (  -0.0000182  -0.0000182   0.3335478  )
        41           Au  tau(  41) = (   0.3332215  -0.0000181   0.3335472  )
        42           Au  tau(  42) = (   0.6664447  -0.0000183   0.3335481  )
        43           Au  tau(  43) = (  -0.0000181   0.3332215   0.3335472  )
        44           Au  tau(  44) = (   0.3332215   0.3332215   0.3335468  )
        45           Au  tau(  45) = (   0.6664445   0.3332215   0.3335478  )
        46           Au  tau(  46) = (  -0.0000183   0.6664447   0.3335481  )
        47           Au  tau(  47) = (   0.3332215   0.6664445   0.3335478  )
        48           Au  tau(  48) = (   0.6664446   0.6664446   0.3335486  )
        49           Au  tau(  49) = (   0.1666097   0.1666097   0.3335483  )
        50           Au  tau(  50) = (   0.4998320   0.1666098   0.3335477  )
        51           Au  tau(  51) = (   0.8330732   0.1666096   0.3335481  )
        52           Au  tau(  52) = (   0.1666098   0.4998320   0.3335477  )
        53           Au  tau(  53) = (   0.4998321   0.4998321   0.3335470  )
        54           Au  tau(  54) = (   0.8330730   0.4998322   0.3335474  )
        55           Au  tau(  55) = (   0.1666096   0.8330732   0.3335481  )
        56           Au  tau(  56) = (   0.4998322   0.8330730   0.3335474  )
        57           Au  tau(  57) = (   0.8330731   0.8330731   0.3335478  )
        58           Au  tau(  58) = (   0.1666104  -0.0000111   0.4993095  )
        59           Au  tau(  59) = (   0.4998323  -0.0000112   0.4993099  )
        60           Au  tau(  60) = (   0.8330661  -0.0000111   0.4993009  )
        61           Au  tau(  61) = (  -0.0000111   0.1666104   0.4993095  )
        62           Au  tau(  62) = (   0.3332214   0.1666106   0.4993185  )
        63           Au  tau(  63) = (   0.6664437   0.1666106   0.4993187  )
        64           Au  tau(  64) = (   0.1666106   0.3332214   0.4993185  )
        65           Au  tau(  65) = (   0.4998324   0.3332216   0.4993185  )
        66           Au  tau(  66) = (   0.8330659   0.3332215   0.4993103  )
        67           Au  tau(  67) = (  -0.0000112   0.4998323   0.4993099  )
        68           Au  tau(  68) = (   0.3332216   0.4998324   0.4993185  )
        69           Au  tau(  69) = (   0.6664436   0.4998325   0.4993187  )
        70           Au  tau(  70) = (   0.1666106   0.6664437   0.4993187  )
        71           Au  tau(  71) = (   0.4998325   0.6664436   0.4993187  )
        72           Au  tau(  72) = (   0.8330658   0.6664438   0.4993102  )
        73           Au  tau(  73) = (  -0.0000111   0.8330661   0.4993009  )
        74           Au  tau(  74) = (   0.3332215   0.8330659   0.4993103  )
        75           Au  tau(  75) = (   0.6664438   0.8330658   0.4993102  )

     number of k points=     6  Marzari-Vanderbilt smearing, width (Ry)=  0.0200
                       cart. coord. in units 2pi/alat
        k(    1) = (   0.2500000   0.2500000   0.0833333), wk =   0.3333333
        k(    2) = (   0.2500000   0.2500000  -0.2500000), wk =   0.3333333
        k(    3) = (  -0.2500000  -0.2500000   0.0833333), wk =   0.3333333
        k(    4) = (  -0.2500000   0.2500000  -0.0833333), wk =   0.3333333
        k(    5) = (   0.2500000  -0.2500000  -0.0833333), wk =   0.3333333
        k(    6) = (  -0.2500000   0.2500000   0.2500000), wk =   0.3333333

     Dense  grid:  3792731 G-vectors     FFT dimensions: ( 160, 160, 320)

     Smooth grid:  1341081 G-vectors     FFT dimensions: ( 120, 120, 225)

     Largest allocated arrays     est. size (Mb)     dimensions
        Kohn-Sham Wavefunctions        38.58 Mb     (    5267,  480)
        NL pseudopotentials            76.03 Mb     (    5267,  946)
        Each V/rho on FFT grid          3.91 Mb     (  256000)
        Each G-vector array             0.90 Mb     (  118520)
        G-vector shells                 0.08 Mb     (   10286)
     Largest temporary arrays     est. size (Mb)     dimensions
        Auxiliary wavefunctions       154.31 Mb     (    5267, 1920)
        Each subspace H/S matrix       56.25 Mb     (    1920, 1920)
        Each <psi_i|beta_j> matrix      6.93 Mb     (     946,  480)
        Arrays for rho mixing          31.25 Mb     (  256000,    8)

     Initial potential from superposition of free atoms
     Check: negative starting charge=   -1.945134

     starting charge  799.16392, renormalised to  800.00000

     negative rho (up, down):  1.947E+00 0.000E+00


     ************************************************************************
     *
     * You are using vdW-DF for exchange-correlation in this calculation.
     * Please cite the following three references that made this development
     * possible:
     *
     *   M. Dion, H. Rydberg, E. Schroder, D. C. Langreth, and
     *   B. I. Lundqvist, Phys. Rev. Lett. 92, 246401 (2004).
     *
     *   T. Thonhauser, V. R. Cooper, S. Li, A. Puzder, P. Hyldgaard, and
     *   D. C. Langreth, Phys. Rev. B 76, 125112 (2007).
     *
     *   G. Roman-Perez and J. M. Soler, Phys. Rev. Lett. 103, 096102 (2009).
     *
     *
     * If you are using vdW-DF2, please also cite:
     *
     *   K. Lee, E. D. Murray, L. Kong, B. I. Lundqvist, and
     *   D. C. Langreth, Phys. Rev. B 82, 081101(R) (2010).
     *
     *
     * If you are calculating the stress with vdW-DF, please also cite:
     *
     *   R. Sabatini, E. Kucukbenli, B. Kolb, T. Thonhauser, and
     *   S. de Gironcoli, J. Phys.: Condens. Matter 24, 424209 (2012).
     *
     ************************************************************************

     Carrying out vdW-DF run using the following parameters:

     Nqs =      20    Nr_points =    1024   r_max =   100.000
     q_mesh =
               0.00001000     0.04494208     0.09755937     0.15916263
               0.23128650     0.31572767     0.41458969     0.53033537
               0.66584808     0.82450364     1.01025438     1.22772762
               1.48234092     1.78043706     2.12944203     2.53805004
               3.01644009     3.57652955     4.23227104     5.00000000

     Gradients computed in reciprocal space

     ************************************************************************


     Starting wfc are  654 randomized atomic wfcs

     total cpu time spent up to now is      125.4 secs

     Self-consistent Calculation

     iteration #  1     ecut=    50.00 Ry     beta=0.70
     Davidson diagonalization with overlap
     ethr =  1.00E-02,  avg # of iterations =  3.0

     Threshold (ethr) on eigenvalues was too large:
     Diagonalizing with lowered threshold

     Davidson diagonalization with overlap
     ethr =  4.20E-04,  avg # of iterations =  2.0

     negative rho (up, down):  1.947E+00 0.000E+00

     total cpu time spent up to now is      558.2 secs

     total energy              =   -7423.04178035 Ry
     Harris-Foulkes estimate   =   -7426.06448629 Ry
     estimated scf accuracy    <       3.73499600 Ry

     iteration #  2     ecut=    50.00 Ry     beta=0.70
     Davidson diagonalization with overlap
     ethr =  4.67E-04,  avg # of iterations = 11.3

     negative rho (up, down):  1.943E+00 0.000E+00

     total cpu time spent up to now is     1290.8 secs

     total energy              =   -7415.24164243 Ry
     Harris-Foulkes estimate   =   -7432.57036222 Ry
     estimated scf accuracy    <      90.02176468 Ry

     iteration #  3     ecut=    50.00 Ry     beta=0.70
     Davidson diagonalization with overlap
     ethr =  4.67E-04,  avg # of iterations =  6.0

     negative rho (up, down):  1.953E+00 0.000E+00

     total cpu time spent up to now is     1750.0 secs

     total energy              =   -7424.14961706 Ry
     Harris-Foulkes estimate   =   -7425.85726344 Ry
     estimated scf accuracy    <       7.03832031 Ry

     iteration #  4     ecut=    50.00 Ry     beta=0.70
     Davidson diagonalization with overlap
     ethr =  4.67E-04,  avg # of iterations =  5.3

     negative rho (up, down):  1.956E+00 0.000E+00

     total cpu time spent up to now is     2015.0 secs

     total energy              =   -7424.84650664 Ry
     Harris-Foulkes estimate   =   -7425.65064745 Ry
     estimated scf accuracy    <       4.40218022 Ry

     iteration #  5     ecut=    50.00 Ry     beta=0.70
     Davidson diagonalization with overlap
     ethr =  4.67E-04,  avg # of iterations =  6.2

     negative rho (up, down):  1.963E+00 0.000E+00

     total cpu time spent up to now is     2293.1 secs

     total energy              =   -7425.08803786 Ry
     Harris-Foulkes estimate   =   -7425.55590089 Ry
     estimated scf accuracy    <       3.51526198 Ry

     iteration #  6     ecut=    50.00 Ry     beta=0.70
     Davidson diagonalization with overlap
     ethr =  4.39E-04,  avg # of iterations =  3.7

     negative rho (up, down):  1.967E+00 0.000E+00

     total cpu time spent up to now is     2526.8 secs

     total energy              =   -7425.27286711 Ry
     Harris-Foulkes estimate   =   -7425.32670929 Ry
     estimated scf accuracy    <       0.18521009 Ry

     iteration #  7     ecut=    50.00 Ry     beta=0.70
     Davidson diagonalization with overlap
     ethr =  2.32E-05,  avg # of iterations =  8.8

     negative rho (up, down):  1.970E+00 0.000E+00

     total cpu time spent up to now is     2864.1 secs

     total energy              =   -7425.27635935 Ry
     Harris-Foulkes estimate   =   -7425.32186691 Ry
     estimated scf accuracy    <       0.23471103 Ry

     iteration #  8     ecut=    50.00 Ry     beta=0.70
     Davidson diagonalization with overlap
     ethr =  2.32E-05,  avg # of iterations =  3.0

     negative rho (up, down):  1.971E+00 0.000E+00

     total cpu time spent up to now is     3099.6 secs

     total energy              =   -7425.28498343 Ry
     Harris-Foulkes estimate   =   -7425.30378739 Ry
     estimated scf accuracy    <       0.07808296 Ry

     iteration #  9     ecut=    50.00 Ry     beta=0.70
     Davidson diagonalization with overlap
     ethr =  9.76E-06,  avg # of iterations =  7.0

     negative rho (up, down):  1.972E+00 0.000E+00

     total cpu time spent up to now is     3387.8 secs

     total energy              =   -7425.28614345 Ry
     Harris-Foulkes estimate   =   -7425.29607601 Ry
     estimated scf accuracy    <       0.03358420 Ry

     iteration # 10     ecut=    50.00 Ry     beta=0.70
     Davidson diagonalization with overlap
     ethr =  4.20E-06,  avg # of iterations =  5.5

     negative rho (up, down):  1.973E+00 0.000E+00

     total cpu time spent up to now is     3656.2 secs

     total energy              =   -7425.28748312 Ry
     Harris-Foulkes estimate   =   -7425.29056512 Ry
     estimated scf accuracy    <       0.00901516 Ry

     iteration # 11     ecut=    50.00 Ry     beta=0.70
     Davidson diagonalization with overlap
     ethr =  1.13E-06,  avg # of iterations =  8.8

     negative rho (up, down):  1.974E+00 0.000E+00

     total cpu time spent up to now is     3964.2 secs

     total energy              =   -7425.28793480 Ry
     Harris-Foulkes estimate   =   -7425.28906174 Ry
     estimated scf accuracy    <       0.00377643 Ry

     iteration # 12     ecut=    50.00 Ry     beta=0.70
     Davidson diagonalization with overlap
     ethr =  4.72E-07,  avg # of iterations =  2.3

     negative rho (up, down):  1.974E+00 0.000E+00

     total cpu time spent up to now is     4189.2 secs

     total energy              =   -7425.28754925 Ry
     Harris-Foulkes estimate   =   -7425.28843593 Ry
     estimated scf accuracy    <       0.00144086 Ry

     iteration # 13     ecut=    50.00 Ry     beta=0.70
     Davidson diagonalization with overlap
     ethr =  1.80E-07,  avg # of iterations =  7.8

     negative rho (up, down):  1.974E+00 0.000E+00

     total cpu time spent up to now is     4618.3 secs

     total energy              =   -7425.28666948 Ry
     Harris-Foulkes estimate   =   -7425.28950432 Ry
     estimated scf accuracy    <       0.01480095 Ry

     iteration # 14     ecut=    50.00 Ry     beta=0.70
     Davidson diagonalization with overlap
     ethr =  1.80E-07,  avg # of iterations =  3.0

     negative rho (up, down):  1.974E+00 0.000E+00

     total cpu time spent up to now is     4916.5 secs

     total energy              =   -7425.28795315 Ry
     Harris-Foulkes estimate   =   -7425.28816243 Ry
     estimated scf accuracy    <       0.00081378 Ry

     iteration # 15     ecut=    50.00 Ry     beta=0.70
     Davidson diagonalization with overlap
     ethr =  1.02E-07,  avg # of iterations =  2.0

     negative rho (up, down):  1.974E+00 0.000E+00

     total cpu time spent up to now is     5131.7 secs

     total energy              =   -7425.28800811 Ry
     Harris-Foulkes estimate   =   -7425.28811010 Ry
     estimated scf accuracy    <       0.00042936 Ry

     iteration # 16     ecut=    50.00 Ry     beta=0.70
     Davidson diagonalization with overlap
     ethr =  5.37E-08,  avg # of iterations =  2.0

     negative rho (up, down):  1.974E+00 0.000E+00

     total cpu time spent up to now is     5354.3 secs

     total energy              =   -7425.28796550 Ry
     Harris-Foulkes estimate   =   -7425.28820017 Ry
     estimated scf accuracy    <       0.00200054 Ry

     iteration # 17     ecut=    50.00 Ry     beta=0.70
     Davidson diagonalization with overlap
     ethr =  5.37E-08,  avg # of iterations =  2.0

     negative rho (up, down):  1.974E+00 0.000E+00

     total cpu time spent up to now is     5576.0 secs

     total energy              =   -7425.28807476 Ry
     Harris-Foulkes estimate   =   -7425.28808367 Ry
     estimated scf accuracy    <       0.00002732 Ry

     iteration # 18     ecut=    50.00 Ry     beta=0.70
     Davidson diagonalization with overlap
     ethr =  3.42E-09,  avg # of iterations =  3.0

     negative rho (up, down):  1.974E+00 0.000E+00

     total cpu time spent up to now is     5831.8 secs

     total energy              =   -7425.28807872 Ry
     Harris-Foulkes estimate   =   -7425.28808337 Ry
     estimated scf accuracy    <       0.00002270 Ry

     iteration # 19     ecut=    50.00 Ry     beta=0.70
     Davidson diagonalization with overlap
     ethr =  2.84E-09,  avg # of iterations =  2.0

     negative rho (up, down):  1.974E+00 0.000E+00

     total cpu time spent up to now is     6052.1 secs

     total energy              =   -7425.28808050 Ry
     Harris-Foulkes estimate   =   -7425.28808208 Ry
     estimated scf accuracy    <       0.00000631 Ry

     iteration # 20     ecut=    50.00 Ry     beta=0.70
     Davidson diagonalization with overlap
     ethr =  7.89E-10,  avg # of iterations =  2.0

     negative rho (up, down):  1.974E+00 0.000E+00

     total cpu time spent up to now is     6270.1 secs

     total energy              =   -7425.28808124 Ry
     Harris-Foulkes estimate   =   -7425.28808172 Ry
     estimated scf accuracy    <       0.00000182 Ry

     iteration # 21     ecut=    50.00 Ry     beta=0.70
     Davidson diagonalization with overlap
     ethr =  2.28E-10,  avg # of iterations =  2.0

     negative rho (up, down):  1.974E+00 0.000E+00

     total cpu time spent up to now is     6497.9 secs

     total energy              =   -7425.28808151 Ry
     Harris-Foulkes estimate   =   -7425.28808162 Ry
     estimated scf accuracy    <       0.00000053 Ry

     iteration # 22     ecut=    50.00 Ry     beta=0.70
     Davidson diagonalization with overlap
     ethr =  6.60E-11,  avg # of iterations =  3.0

     negative rho (up, down):  1.974E+00 0.000E+00

     total cpu time spent up to now is     6730.9 secs

     total energy              =   -7425.28808160 Ry
     Harris-Foulkes estimate   =   -7425.28808164 Ry
     estimated scf accuracy    <       0.00000017 Ry

     iteration # 23     ecut=    50.00 Ry     beta=0.70
     Davidson diagonalization with overlap
     ethr =  2.13E-11,  avg # of iterations =  3.0

     negative rho (up, down):  1.974E+00 0.000E+00

     total cpu time spent up to now is     6975.3 secs

     total energy              =   -7425.28808160 Ry
     Harris-Foulkes estimate   =   -7425.28808165 Ry
     estimated scf accuracy    <       0.00000017 Ry

     iteration # 24     ecut=    50.00 Ry     beta=0.70
     Davidson diagonalization with overlap
     ethr =  2.10E-11,  avg # of iterations =  2.0

     negative rho (up, down):  1.974E+00 0.000E+00

     total cpu time spent up to now is     7193.8 secs

     total energy              =   -7425.28808163 Ry
     Harris-Foulkes estimate   =   -7425.28808163 Ry
     estimated scf accuracy    <       0.00000009 Ry

     iteration # 25     ecut=    50.00 Ry     beta=0.70
     Davidson diagonalization with overlap
     ethr =  1.09E-11,  avg # of iterations =  2.0

     negative rho (up, down):  1.974E+00 0.000E+00

     total cpu time spent up to now is     7414.5 secs

     total energy              =   -7425.28808164 Ry
     Harris-Foulkes estimate   =   -7425.28808164 Ry
     estimated scf accuracy    <       0.00000005 Ry

     iteration # 26     ecut=    50.00 Ry     beta=0.70
     Davidson diagonalization with overlap
     ethr =  6.20E-12,  avg # of iterations =  1.5

     negative rho (up, down):  1.974E+00 0.000E+00

     total cpu time spent up to now is     7629.9 secs

     total energy              =   -7425.28808164 Ry
     Harris-Foulkes estimate   =   -7425.28808165 Ry
     estimated scf accuracy    <       0.00000001 Ry

     iteration # 27     ecut=    50.00 Ry     beta=0.70
     Davidson diagonalization with overlap
     ethr =  1.69E-12,  avg # of iterations =  2.0

     negative rho (up, down):  1.974E+00 0.000E+00

     total cpu time spent up to now is     7870.0 secs

     total energy              =   -7425.28808164 Ry
     Harris-Foulkes estimate   =   -7425.28808165 Ry
     estimated scf accuracy    <       0.00000003 Ry

     iteration # 28     ecut=    50.00 Ry     beta=0.70
     Davidson diagonalization with overlap
     ethr =  1.69E-12,  avg # of iterations =  2.0

     negative rho (up, down):  1.974E+00 0.000E+00

     total cpu time spent up to now is     8090.9 secs

     End of self-consistent calculation

          k = 0.2500 0.2500 0.0833 (167653 PWs)   bands (ev):

   -19.4439  -7.3778  -6.8267  -6.2993  -6.2985  -5.8697  -5.4606  -5.3678
    -5.3672  -5.1720  -5.1712  -5.0543  -5.0530  -4.9754  -4.9522  -4.8793
    -4.7946  -4.7906  -4.7519  -4.7515  -4.5914  -4.5741  -4.5735  -4.5726
    -4.5658  -4.5103  -4.5099  -4.4985  -4.4979  -4.4612  -4.4490  -4.4480
    -4.4064  -4.4062  -4.3733  -4.3718  -4.3213  -4.3192  -4.3097  -4.3079
    -4.3023  -4.2892  -4.2890  -4.2487  -4.2302  -4.2297  -4.2228  -4.2226
    -4.1909  -4.1415  -4.1258  -4.1251  -4.1240  -4.1211  -4.1136  -4.1084
    -4.1082  -4.1072  -4.0450  -4.0422  -3.9936  -3.9922  -3.9808  -3.9553
    -3.9542  -3.9355  -3.9314  -3.9309  -3.9274  -3.9243  -3.8754  -3.8747
    -3.8626  -3.8615  -3.7592  -3.7562  -3.7539  -3.7498  -3.7128  -3.7068
    -3.6892  -3.6610  -3.6596  -3.6316  -3.6304  -3.6147  -3.6091  -3.5970
    -3.5951  -3.5562  -3.5402  -3.5370  -3.5143  -3.5056  -3.4955  -3.4936
    -3.4929  -3.4822  -3.4650  -3.4592  -3.4282  -3.4272  -3.4079  -3.4028
    -3.3743  -3.3706  -3.3556  -3.3271  -3.3267  -3.2904  -3.2892  -3.2533
    -3.2461  -3.2456  -3.2317  -3.2301  -3.2266  -3.2261  -3.1897  -3.1776
    -3.1378  -3.1374  -3.1289  -3.1198  -3.1194  -3.1177  -3.0936  -3.0935
    -3.0731  -3.0723  -3.0709  -3.0448  -3.0444  -3.0369  -3.0345  -3.0333
    -2.9977  -2.9948  -2.9594  -2.9577  -2.9574  -2.9551  -2.9539  -2.8747
    -2.8652  -2.8623  -2.8603  -2.8599  -2.8587  -2.8558  -2.8539  -2.8531
    -2.8529  -2.8436  -2.8358  -2.8201  -2.8167  -2.8160  -2.8148  -2.8012
    -2.7967  -2.7589  -2.7581  -2.7572  -2.7535  -2.7523  -2.7349  -2.7341
    -2.7263  -2.7257  -2.7230  -2.6648  -2.6642  -2.6588  -2.6583  -2.6545
    -2.6530  -2.6258  -2.5665  -2.5659  -2.5649  -2.5622  -2.5512  -2.5497
    -2.5451  -2.5349  -2.5331  -2.4994  -2.4958  -2.4894  -2.4891  -2.4863
    -2.4859  -2.4483  -2.4472  -2.4382  -2.4367  -2.4357  -2.4347  -2.3932
    -2.3784  -2.3727  -2.3191  -2.3175  -2.3018  -2.2993  -2.2935  -2.2923
    -2.2459  -2.2430  -2.2205  -2.2068  -2.1920  -2.1901  -2.1882  -2.1677
    -2.1664  -2.1573  -2.1423  -2.1054  -2.1002  -2.0886  -2.0846  -2.0836
    -2.0760  -2.0736  -2.0649  -2.0586  -2.0577  -2.0538  -2.0506  -2.0480
    -2.0471  -2.0378  -2.0357  -2.0194  -2.0178  -2.0162  -2.0104  -2.0074
    -2.0059  -1.9845  -1.9825  -1.9728  -1.9701  -1.9670  -1.9636  -1.9272
    -1.8947  -1.8921  -1.8569  -1.8429  -1.8401  -1.8356  -1.8274  -1.8112
    -1.8048  -1.7968  -1.7900  -1.7896  -1.7879  -1.7873  -1.7840  -1.7557
    -1.7522  -1.7517  -1.7114  -1.7062  -1.6715  -1.6671  -1.6370  -1.6191
    -1.6126  -1.5983  -1.5839  -1.5763  -1.5729  -1.5600  -1.5527  -1.5429
    -1.5395  -1.5361  -1.5348  -1.5339  -1.5332  -1.5311  -1.5172  -1.5106
    -1.5056  -1.4836  -1.4796  -1.4650  -1.4601  -1.4402  -1.4363  -1.4339
    -1.4332  -1.4285  -1.4199  -1.4060  -1.3999  -1.3900  -1.3805  -1.3687
    -1.3660  -1.3533  -1.3423  -1.3240  -1.3225  -1.3157  -1.3082  -1.2800
    -1.2767  -1.2700  -1.2681  -1.2623  -1.2563  -1.2414  -1.2392  -1.2289
    -1.2212  -1.2191  -1.2100  -1.2074  -1.2067  -1.1991  -1.1932  -1.1825
    -1.1804  -1.1743  -1.1736  -1.1616  -1.1574  -1.1513  -1.1485  -1.1112
    -1.1079  -1.1047  -1.1018  -1.1013  -1.0975  -1.0628  -1.0458  -1.0443
    -1.0439  -1.0421  -1.0395  -1.0347  -1.0335  -1.0195  -1.0174  -0.9827
    -0.9810  -0.9757  -0.9748  -0.9534  -0.9525  -0.9430  -0.9138  -0.9055
    -0.8792  -0.8772  -0.8507  -0.8503  -0.8466  -0.8463  -0.8446  -0.8403
    -0.8358  -0.8348  -0.8318  -0.8305  -0.7996  -0.7987  -0.7806  -0.7773
    -0.7758  -0.7745  -0.7730  -0.7671  -0.7549  -0.4807  -0.4682  -0.4113
    -0.4052  -0.3732  -0.2131  -0.1485  -0.1469  -0.1111   0.1720   0.1735
     0.5025   0.5062   0.5997   0.6010   0.6410   0.6428   0.7864   0.7890
     0.9091   0.9118   1.0031   1.5972   1.6142   1.6159   1.6538   1.6601
     1.7046   1.7120   1.7855   1.7869   1.9912   1.9929   2.2299   2.3068
     2.3099   2.3239   2.7038   2.7099   2.7769   2.7778   2.7849   2.7863
     2.9349   2.9376   2.9879   3.0802   3.0829   3.3115   3.3127   3.4460
     3.4735   3.4753   3.7452   3.7468   3.8603   3.8768   3.8783   3.9366
     3.9640   4.0619   4.0656   4.2983   4.3022   4.3894   4.3939   4.5136
     4.5164   4.5372   4.5438   4.6868   5.0688   5.3429   5.3543   5.4393
     5.4456   5.5208   5.6231   5.6267   5.6599   5.7021   5.7369   5.7423
     5.7520   5.7890   5.7952   5.8380   6.0102   6.0837   6.1048   6.1097
     6.1247   6.1320   6.1374   6.1418   6.1470   6.1488   6.1855   6.2204

          k = 0.2500 0.2500-0.2500 (167588 PWs)   bands (ev):

   -19.4439  -7.3778  -6.8267  -6.2993  -6.2985  -5.8697  -5.4606  -5.3678
    -5.3672  -5.1720  -5.1712  -5.0543  -5.0530  -4.9754  -4.9522  -4.8793
    -4.7946  -4.7906  -4.7519  -4.7515  -4.5914  -4.5741  -4.5735  -4.5726
    -4.5658  -4.5103  -4.5099  -4.4985  -4.4979  -4.4612  -4.4490  -4.4480
    -4.4064  -4.4062  -4.3733  -4.3718  -4.3213  -4.3192  -4.3097  -4.3080
    -4.3023  -4.2892  -4.2890  -4.2487  -4.2302  -4.2297  -4.2228  -4.2226
    -4.1909  -4.1415  -4.1258  -4.1251  -4.1239  -4.1211  -4.1136  -4.1084
    -4.1082  -4.1072  -4.0450  -4.0422  -3.9936  -3.9922  -3.9808  -3.9553
    -3.9542  -3.9355  -3.9314  -3.9309  -3.9274  -3.9243  -3.8754  -3.8747
    -3.8626  -3.8615  -3.7592  -3.7562  -3.7539  -3.7498  -3.7128  -3.7068
    -3.6892  -3.6610  -3.6596  -3.6316  -3.6304  -3.6147  -3.6091  -3.5970
    -3.5951  -3.5562  -3.5402  -3.5371  -3.5143  -3.5056  -3.4955  -3.4936
    -3.4929  -3.4822  -3.4650  -3.4592  -3.4282  -3.4272  -3.4079  -3.4028
    -3.3743  -3.3706  -3.3556  -3.3271  -3.3267  -3.2904  -3.2892  -3.2533
    -3.2461  -3.2456  -3.2317  -3.2301  -3.2266  -3.2261  -3.1897  -3.1776
    -3.1378  -3.1374  -3.1289  -3.1198  -3.1193  -3.1177  -3.0936  -3.0935
    -3.0731  -3.0723  -3.0709  -3.0448  -3.0444  -3.0369  -3.0345  -3.0333
    -2.9977  -2.9948  -2.9594  -2.9577  -2.9574  -2.9551  -2.9539  -2.8747
    -2.8652  -2.8623  -2.8603  -2.8599  -2.8587  -2.8558  -2.8539  -2.8531
    -2.8529  -2.8436  -2.8358  -2.8201  -2.8167  -2.8160  -2.8148  -2.8012
    -2.7967  -2.7589  -2.7581  -2.7572  -2.7535  -2.7523  -2.7349  -2.7341
    -2.7263  -2.7257  -2.7230  -2.6648  -2.6642  -2.6588  -2.6582  -2.6545
    -2.6530  -2.6258  -2.5665  -2.5659  -2.5649  -2.5622  -2.5512  -2.5497
    -2.5451  -2.5349  -2.5331  -2.4994  -2.4958  -2.4894  -2.4891  -2.4863
    -2.4859  -2.4483  -2.4472  -2.4382  -2.4367  -2.4357  -2.4347  -2.3932
    -2.3784  -2.3727  -2.3191  -2.3175  -2.3018  -2.2993  -2.2935  -2.2923
    -2.2459  -2.2430  -2.2205  -2.2068  -2.1920  -2.1901  -2.1882  -2.1677
    -2.1664  -2.1573  -2.1423  -2.1054  -2.1002  -2.0886  -2.0846  -2.0836
    -2.0760  -2.0736  -2.0649  -2.0586  -2.0577  -2.0538  -2.0506  -2.0480
    -2.0471  -2.0378  -2.0357  -2.0194  -2.0178  -2.0162  -2.0104  -2.0074
    -2.0059  -1.9845  -1.9825  -1.9728  -1.9701  -1.9670  -1.9636  -1.9272
    -1.8947  -1.8921  -1.8569  -1.8429  -1.8401  -1.8356  -1.8274  -1.8112
    -1.8048  -1.7968  -1.7900  -1.7896  -1.7879  -1.7873  -1.7840  -1.7557
    -1.7522  -1.7517  -1.7114  -1.7062  -1.6715  -1.6671  -1.6370  -1.6191
    -1.6126  -1.5983  -1.5839  -1.5763  -1.5729  -1.5600  -1.5527  -1.5429
    -1.5395  -1.5361  -1.5348  -1.5339  -1.5332  -1.5310  -1.5173  -1.5106
    -1.5056  -1.4836  -1.4796  -1.4650  -1.4601  -1.4402  -1.4363  -1.4339
    -1.4332  -1.4284  -1.4199  -1.4060  -1.3999  -1.3900  -1.3805  -1.3687
    -1.3660  -1.3533  -1.3423  -1.3240  -1.3225  -1.3157  -1.3082  -1.2800
    -1.2767  -1.2700  -1.2681  -1.2623  -1.2563  -1.2414  -1.2392  -1.2289
    -1.2212  -1.2191  -1.2100  -1.2074  -1.2067  -1.1991  -1.1932  -1.1825
    -1.1805  -1.1742  -1.1736  -1.1616  -1.1574  -1.1513  -1.1485  -1.1112
    -1.1079  -1.1047  -1.1018  -1.1013  -1.0975  -1.0628  -1.0458  -1.0443
    -1.0438  -1.0421  -1.0395  -1.0347  -1.0335  -1.0195  -1.0174  -0.9827
    -0.9810  -0.9757  -0.9748  -0.9534  -0.9525  -0.9430  -0.9138  -0.9055
    -0.8792  -0.8772  -0.8507  -0.8503  -0.8466  -0.8463  -0.8446  -0.8403
    -0.8358  -0.8348  -0.8318  -0.8305  -0.7996  -0.7987  -0.7806  -0.7773
    -0.7758  -0.7745  -0.7730  -0.7671  -0.7549  -0.4807  -0.4682  -0.4113
    -0.4052  -0.3732  -0.2131  -0.1485  -0.1469  -0.1111   0.1720   0.1735
     0.5025   0.5062   0.5997   0.6010   0.6410   0.6428   0.7864   0.7890
     0.9091   0.9118   1.0031   1.5972   1.6142   1.6159   1.6538   1.6601
     1.7046   1.7120   1.7855   1.7869   1.9912   1.9929   2.2299   2.3068
     2.3099   2.3239   2.7038   2.7099   2.7769   2.7778   2.7849   2.7863
     2.9349   2.9376   2.9879   3.0802   3.0829   3.3115   3.3127   3.4460
     3.4735   3.4753   3.7452   3.7468   3.8603   3.8768   3.8783   3.9366
     3.9641   4.0619   4.0656   4.2983   4.3022   4.3894   4.3939   4.5136
     4.5164   4.5372   4.5438   4.6869   5.0619   5.3405   5.3513   5.4387
     5.4447   5.5164   5.6236   5.6268   5.6797   5.7205   5.7403   5.7449
     5.7543   5.7896   5.7952   5.8379   6.0421   6.0754   6.0979   6.1101
     6.1257   6.1314   6.1381   6.1443   6.1470   6.1478   6.2029   6.2273

          k =-0.2500-0.2500 0.0833 (167653 PWs)   bands (ev):

   -19.4439  -7.3778  -6.8267  -6.2993  -6.2985  -5.8697  -5.4606  -5.3678
    -5.3672  -5.1720  -5.1712  -5.0543  -5.0530  -4.9754  -4.9522  -4.8793
    -4.7946  -4.7906  -4.7519  -4.7515  -4.5914  -4.5741  -4.5735  -4.5726
    -4.5658  -4.5103  -4.5099  -4.4985  -4.4979  -4.4612  -4.4490  -4.4480
    -4.4064  -4.4062  -4.3733  -4.3718  -4.3213  -4.3192  -4.3097  -4.3079
    -4.3023  -4.2892  -4.2890  -4.2487  -4.2302  -4.2297  -4.2228  -4.2226
    -4.1909  -4.1415  -4.1258  -4.1251  -4.1240  -4.1211  -4.1136  -4.1084
    -4.1082  -4.1072  -4.0450  -4.0422  -3.9936  -3.9922  -3.9808  -3.9553
    -3.9542  -3.9355  -3.9314  -3.9309  -3.9274  -3.9243  -3.8754  -3.8747
    -3.8626  -3.8615  -3.7592  -3.7562  -3.7539  -3.7498  -3.7128  -3.7068
    -3.6892  -3.6610  -3.6596  -3.6316  -3.6304  -3.6147  -3.6091  -3.5970
    -3.5951  -3.5562  -3.5402  -3.5370  -3.5143  -3.5056  -3.4955  -3.4936
    -3.4929  -3.4822  -3.4650  -3.4592  -3.4282  -3.4272  -3.4079  -3.4028
    -3.3743  -3.3706  -3.3556  -3.3271  -3.3267  -3.2904  -3.2892  -3.2533
    -3.2461  -3.2456  -3.2317  -3.2301  -3.2266  -3.2261  -3.1897  -3.1776
    -3.1378  -3.1374  -3.1289  -3.1198  -3.1194  -3.1177  -3.0936  -3.0935
    -3.0731  -3.0723  -3.0709  -3.0448  -3.0444  -3.0369  -3.0345  -3.0333
    -2.9977  -2.9948  -2.9594  -2.9577  -2.9574  -2.9551  -2.9539  -2.8747
    -2.8652  -2.8623  -2.8603  -2.8599  -2.8587  -2.8558  -2.8539  -2.8531
    -2.8529  -2.8436  -2.8358  -2.8201  -2.8167  -2.8160  -2.8148  -2.8012
    -2.7967  -2.7589  -2.7581  -2.7572  -2.7535  -2.7523  -2.7349  -2.7341
    -2.7263  -2.7257  -2.7230  -2.6648  -2.6642  -2.6588  -2.6583  -2.6545
    -2.6530  -2.6258  -2.5665  -2.5659  -2.5649  -2.5622  -2.5512  -2.5497
    -2.5451  -2.5349  -2.5331  -2.4994  -2.4958  -2.4894  -2.4891  -2.4863
    -2.4859  -2.4483  -2.4472  -2.4382  -2.4367  -2.4357  -2.4347  -2.3932
    -2.3784  -2.3727  -2.3191  -2.3175  -2.3018  -2.2993  -2.2935  -2.2923
    -2.2459  -2.2430  -2.2205  -2.2068  -2.1920  -2.1901  -2.1882  -2.1677
    -2.1664  -2.1573  -2.1423  -2.1054  -2.1002  -2.0886  -2.0846  -2.0836
    -2.0760  -2.0736  -2.0649  -2.0586  -2.0577  -2.0538  -2.0506  -2.0480
    -2.0471  -2.0378  -2.0357  -2.0194  -2.0178  -2.0162  -2.0104  -2.0074
    -2.0059  -1.9845  -1.9825  -1.9728  -1.9701  -1.9670  -1.9636  -1.9272
    -1.8947  -1.8921  -1.8569  -1.8429  -1.8401  -1.8356  -1.8274  -1.8112
    -1.8048  -1.7968  -1.7900  -1.7896  -1.7879  -1.7873  -1.7840  -1.7557
    -1.7522  -1.7517  -1.7114  -1.7062  -1.6715  -1.6671  -1.6370  -1.6191
    -1.6126  -1.5983  -1.5839  -1.5763  -1.5729  -1.5600  -1.5527  -1.5429
    -1.5395  -1.5361  -1.5348  -1.5339  -1.5332  -1.5311  -1.5172  -1.5106
    -1.5056  -1.4836  -1.4796  -1.4650  -1.4601  -1.4402  -1.4363  -1.4339
    -1.4332  -1.4285  -1.4199  -1.4060  -1.3999  -1.3900  -1.3805  -1.3687
    -1.3660  -1.3533  -1.3423  -1.3240  -1.3225  -1.3157  -1.3082  -1.2800
    -1.2767  -1.2700  -1.2681  -1.2623  -1.2563  -1.2414  -1.2392  -1.2289
    -1.2212  -1.2191  -1.2100  -1.2074  -1.2067  -1.1991  -1.1932  -1.1825
    -1.1804  -1.1743  -1.1736  -1.1616  -1.1574  -1.1513  -1.1485  -1.1112
    -1.1079  -1.1047  -1.1018  -1.1013  -1.0975  -1.0628  -1.0458  -1.0443
    -1.0439  -1.0421  -1.0395  -1.0347  -1.0335  -1.0195  -1.0174  -0.9827
    -0.9810  -0.9757  -0.9748  -0.9534  -0.9525  -0.9430  -0.9138  -0.9055
    -0.8792  -0.8772  -0.8507  -0.8503  -0.8466  -0.8463  -0.8446  -0.8403
    -0.8358  -0.8348  -0.8318  -0.8305  -0.7996  -0.7987  -0.7806  -0.7773
    -0.7758  -0.7745  -0.7730  -0.7671  -0.7549  -0.4807  -0.4682  -0.4113
    -0.4052  -0.3732  -0.2131  -0.1485  -0.1469  -0.1111   0.1720   0.1735
     0.5025   0.5062   0.5997   0.6010   0.6410   0.6428   0.7864   0.7890
     0.9091   0.9118   1.0031   1.5972   1.6142   1.6159   1.6538   1.6601
     1.7046   1.7120   1.7855   1.7869   1.9912   1.9929   2.2299   2.3068
     2.3099   2.3239   2.7038   2.7099   2.7769   2.7778   2.7849   2.7863
     2.9349   2.9376   2.9879   3.0802   3.0829   3.3115   3.3127   3.4460
     3.4735   3.4753   3.7452   3.7468   3.8603   3.8768   3.8783   3.9366
     3.9640   4.0619   4.0656   4.2983   4.3022   4.3894   4.3939   4.5136
     4.5164   4.5372   4.5438   4.6868   5.0685   5.3428   5.3555   5.4393
     5.4455   5.5166   5.6223   5.6267   5.6648   5.7039   5.7365   5.7424
     5.7523   5.7894   5.7952   5.8382   6.0118   6.0828   6.1031   6.1097
     6.1262   6.1321   6.1377   6.1408   6.1470   6.1482   6.1749   6.2168

          k =-0.2500 0.2500-0.0833 (167653 PWs)   bands (ev):

   -19.4439  -7.3778  -6.8267  -6.2996  -6.2983  -5.8697  -5.4606  -5.3679
    -5.3671  -5.1720  -5.1713  -5.0544  -5.0528  -4.9753  -4.9522  -4.8793
    -4.7947  -4.7905  -4.7520  -4.7513  -4.5915  -4.5741  -4.5733  -4.5726
    -4.5658  -4.5104  -4.5098  -4.4985  -4.4980  -4.4612  -4.4491  -4.4480
    -4.4065  -4.4062  -4.3731  -4.3720  -4.3210  -4.3193  -4.3099  -4.3079
    -4.3023  -4.2891  -4.2891  -4.2490  -4.2301  -4.2298  -4.2229  -4.2224
    -4.1911  -4.1418  -4.1259  -4.1251  -4.1231  -4.1213  -4.1136  -4.1084
    -4.1083  -4.1073  -4.0445  -4.0422  -3.9938  -3.9923  -3.9808  -3.9550
    -3.9544  -3.9351  -3.9313  -3.9310  -3.9280  -3.9243  -3.8756  -3.8747
    -3.8627  -3.8615  -3.7585  -3.7563  -3.7528  -3.7499  -3.7128  -3.7068
    -3.6892  -3.6617  -3.6596  -3.6315  -3.6304  -3.6126  -3.6091  -3.5979
    -3.5952  -3.5627  -3.5403  -3.5394  -3.5091  -3.5057  -3.4946  -3.4933
    -3.4927  -3.4789  -3.4650  -3.4623  -3.4282  -3.4257  -3.4076  -3.4042
    -3.3737  -3.3712  -3.3556  -3.3269  -3.3256  -3.2904  -3.2894  -3.2538
    -3.2461  -3.2455  -3.2320  -3.2308  -3.2265  -3.2261  -3.1897  -3.1776
    -3.1378  -3.1373  -3.1290  -3.1202  -3.1188  -3.1178  -3.0938  -3.0935
    -3.0730  -3.0722  -3.0710  -3.0447  -3.0442  -3.0369  -3.0342  -3.0333
    -2.9976  -2.9946  -2.9599  -2.9579  -2.9575  -2.9550  -2.9539  -2.8748
    -2.8652  -2.8620  -2.8604  -2.8600  -2.8587  -2.8555  -2.8541  -2.8531
    -2.8528  -2.8436  -2.8358  -2.8203  -2.8165  -2.8160  -2.8148  -2.8010
    -2.7964  -2.7591  -2.7579  -2.7573  -2.7536  -2.7524  -2.7349  -2.7342
    -2.7263  -2.7258  -2.7230  -2.6651  -2.6640  -2.6587  -2.6582  -2.6539
    -2.6533  -2.6258  -2.5668  -2.5657  -2.5650  -2.5622  -2.5512  -2.5496
    -2.5452  -2.5347  -2.5330  -2.4998  -2.4959  -2.4900  -2.4883  -2.4867
    -2.4859  -2.4488  -2.4471  -2.4382  -2.4368  -2.4356  -2.4348  -2.3933
    -2.3782  -2.3731  -2.3190  -2.3176  -2.3019  -2.2990  -2.2934  -2.2926
    -2.2461  -2.2429  -2.2206  -2.2066  -2.1918  -2.1904  -2.1881  -2.1677
    -2.1662  -2.1572  -2.1421  -2.1043  -2.1000  -2.0889  -2.0851  -2.0834
    -2.0759  -2.0734  -2.0646  -2.0581  -2.0575  -2.0539  -2.0508  -2.0481
    -2.0469  -2.0376  -2.0362  -2.0197  -2.0175  -2.0161  -2.0102  -2.0074
    -2.0060  -1.9843  -1.9831  -1.9728  -1.9701  -1.9663  -1.9640  -1.9272
    -1.8947  -1.8923  -1.8568  -1.8420  -1.8399  -1.8336  -1.8283  -1.8116
    -1.8053  -1.7947  -1.7900  -1.7893  -1.7879  -1.7878  -1.7848  -1.7560
    -1.7522  -1.7517  -1.7122  -1.7066  -1.6709  -1.6670  -1.6397  -1.6193
    -1.6117  -1.5992  -1.5843  -1.5763  -1.5737  -1.5595  -1.5528  -1.5402
    -1.5395  -1.5366  -1.5351  -1.5340  -1.5330  -1.5311  -1.5164  -1.5114
    -1.5058  -1.4832  -1.4798  -1.4646  -1.4629  -1.4381  -1.4373  -1.4339
    -1.4332  -1.4277  -1.4188  -1.4078  -1.3986  -1.3912  -1.3810  -1.3685
    -1.3656  -1.3532  -1.3427  -1.3252  -1.3220  -1.3159  -1.3076  -1.2783
    -1.2759  -1.2702  -1.2677  -1.2634  -1.2562  -1.2409  -1.2395  -1.2295
    -1.2209  -1.2197  -1.2096  -1.2080  -1.2072  -1.1998  -1.1938  -1.1823
    -1.1801  -1.1743  -1.1737  -1.1610  -1.1581  -1.1515  -1.1489  -1.1116
    -1.1072  -1.1038  -1.1020  -1.1012  -1.0978  -1.0630  -1.0462  -1.0444
    -1.0440  -1.0427  -1.0407  -1.0348  -1.0316  -1.0196  -1.0166  -0.9831
    -0.9808  -0.9759  -0.9746  -0.9533  -0.9524  -0.9430  -0.9142  -0.9057
    -0.8794  -0.8771  -0.8506  -0.8499  -0.8467  -0.8462  -0.8446  -0.8401
    -0.8359  -0.8347  -0.8320  -0.8303  -0.7995  -0.7987  -0.7822  -0.7774
    -0.7752  -0.7744  -0.7733  -0.7653  -0.7550  -0.4806  -0.4682  -0.4139
    -0.4021  -0.3732  -0.2124  -0.1480  -0.1470  -0.1119   0.1706   0.1748
     0.5003   0.5080   0.5999   0.6012   0.6405   0.6441   0.7848   0.7910
     0.9090   0.9116   1.0032   1.5965   1.6144   1.6158   1.6504   1.6601
     1.7009   1.7178   1.7848   1.7884   1.9908   1.9933   2.2289   2.3039
     2.3122   2.3237   2.6990   2.7127   2.7761   2.7795   2.7846   2.7865
     2.9359   2.9369   2.9868   3.0821   3.0856   3.3105   3.3183   3.4455
     3.4723   3.4755   3.7453   3.7481   3.8547   3.8771   3.8787   3.9346
     3.9682   4.0614   4.0663   4.2995   4.3020   4.3853   4.3962   4.5073
     4.5192   4.5313   4.5470   4.6861   5.0699   5.3364   5.3591   5.4405
     5.4481   5.5205   5.6258   5.6267   5.6653   5.7066   5.7302   5.7406
     5.7501   5.7936   5.7946   5.8406   6.0083   6.0917   6.1021   6.1077
     6.1266   6.1316   6.1335   6.1398   6.1429   6.1472   6.1830   6.2127

          k = 0.2500-0.2500-0.0833 (167653 PWs)   bands (ev):

   -19.4439  -7.3778  -6.8267  -6.2996  -6.2983  -5.8697  -5.4606  -5.3679
    -5.3671  -5.1720  -5.1713  -5.0544  -5.0528  -4.9753  -4.9522  -4.8793
    -4.7947  -4.7905  -4.7520  -4.7513  -4.5915  -4.5741  -4.5733  -4.5726
    -4.5658  -4.5104  -4.5098  -4.4985  -4.4980  -4.4612  -4.4491  -4.4480
    -4.4065  -4.4062  -4.3731  -4.3720  -4.3210  -4.3193  -4.3099  -4.3079
    -4.3023  -4.2891  -4.2891  -4.2490  -4.2301  -4.2298  -4.2229  -4.2224
    -4.1911  -4.1418  -4.1259  -4.1251  -4.1231  -4.1213  -4.1136  -4.1084
    -4.1083  -4.1073  -4.0445  -4.0422  -3.9938  -3.9923  -3.9808  -3.9550
    -3.9544  -3.9351  -3.9313  -3.9310  -3.9280  -3.9243  -3.8756  -3.8747
    -3.8627  -3.8615  -3.7585  -3.7563  -3.7528  -3.7499  -3.7128  -3.7068
    -3.6892  -3.6617  -3.6596  -3.6315  -3.6304  -3.6126  -3.6091  -3.5979
    -3.5952  -3.5627  -3.5403  -3.5394  -3.5091  -3.5057  -3.4946  -3.4933
    -3.4927  -3.4789  -3.4650  -3.4623  -3.4282  -3.4257  -3.4076  -3.4042
    -3.3737  -3.3712  -3.3556  -3.3269  -3.3256  -3.2904  -3.2894  -3.2538
    -3.2461  -3.2455  -3.2320  -3.2308  -3.2265  -3.2261  -3.1897  -3.1776
    -3.1378  -3.1373  -3.1290  -3.1202  -3.1188  -3.1178  -3.0938  -3.0935
    -3.0730  -3.0722  -3.0710  -3.0447  -3.0442  -3.0369  -3.0342  -3.0333
    -2.9976  -2.9946  -2.9599  -2.9579  -2.9575  -2.9550  -2.9539  -2.8748
    -2.8652  -2.8620  -2.8604  -2.8600  -2.8587  -2.8555  -2.8541  -2.8531
    -2.8528  -2.8436  -2.8358  -2.8203  -2.8165  -2.8160  -2.8148  -2.8010
    -2.7964  -2.7591  -2.7579  -2.7573  -2.7536  -2.7524  -2.7349  -2.7342
    -2.7263  -2.7258  -2.7230  -2.6651  -2.6640  -2.6587  -2.6582  -2.6539
    -2.6533  -2.6258  -2.5668  -2.5657  -2.5650  -2.5622  -2.5512  -2.5496
    -2.5452  -2.5347  -2.5330  -2.4998  -2.4959  -2.4900  -2.4883  -2.4867
    -2.4859  -2.4488  -2.4471  -2.4382  -2.4368  -2.4356  -2.4348  -2.3933
    -2.3782  -2.3731  -2.3190  -2.3176  -2.3019  -2.2990  -2.2934  -2.2926
    -2.2461  -2.2429  -2.2206  -2.2066  -2.1918  -2.1904  -2.1881  -2.1677
    -2.1662  -2.1572  -2.1421  -2.1043  -2.1000  -2.0889  -2.0851  -2.0834
    -2.0759  -2.0734  -2.0646  -2.0581  -2.0575  -2.0539  -2.0508  -2.0481
    -2.0469  -2.0376  -2.0362  -2.0197  -2.0175  -2.0161  -2.0102  -2.0074
    -2.0060  -1.9843  -1.9831  -1.9728  -1.9701  -1.9663  -1.9640  -1.9272
    -1.8947  -1.8923  -1.8568  -1.8420  -1.8399  -1.8336  -1.8283  -1.8116
    -1.8053  -1.7947  -1.7900  -1.7893  -1.7879  -1.7878  -1.7848  -1.7560
    -1.7522  -1.7517  -1.7122  -1.7066  -1.6709  -1.6670  -1.6397  -1.6193
    -1.6117  -1.5992  -1.5843  -1.5763  -1.5737  -1.5595  -1.5528  -1.5402
    -1.5395  -1.5366  -1.5351  -1.5340  -1.5330  -1.5311  -1.5164  -1.5114
    -1.5058  -1.4832  -1.4798  -1.4646  -1.4629  -1.4381  -1.4373  -1.4339
    -1.4332  -1.4277  -1.4188  -1.4078  -1.3986  -1.3912  -1.3810  -1.3685
    -1.3656  -1.3532  -1.3427  -1.3252  -1.3220  -1.3159  -1.3076  -1.2783
    -1.2759  -1.2702  -1.2677  -1.2634  -1.2562  -1.2409  -1.2395  -1.2295
    -1.2209  -1.2197  -1.2096  -1.2080  -1.2072  -1.1998  -1.1938  -1.1823
    -1.1801  -1.1743  -1.1737  -1.1610  -1.1581  -1.1515  -1.1489  -1.1116
    -1.1072  -1.1038  -1.1020  -1.1012  -1.0978  -1.0630  -1.0462  -1.0444
    -1.0440  -1.0427  -1.0407  -1.0348  -1.0316  -1.0196  -1.0166  -0.9831
    -0.9808  -0.9759  -0.9746  -0.9533  -0.9524  -0.9430  -0.9142  -0.9057
    -0.8794  -0.8771  -0.8506  -0.8499  -0.8467  -0.8462  -0.8446  -0.8401
    -0.8359  -0.8347  -0.8320  -0.8303  -0.7995  -0.7987  -0.7822  -0.7774
    -0.7752  -0.7744  -0.7733  -0.7653  -0.7550  -0.4806  -0.4682  -0.4139
    -0.4021  -0.3732  -0.2124  -0.1480  -0.1470  -0.1119   0.1706   0.1748
     0.5003   0.5080   0.5999   0.6012   0.6405   0.6441   0.7848   0.7910
     0.9090   0.9116   1.0032   1.5965   1.6144   1.6158   1.6504   1.6601
     1.7009   1.7178   1.7848   1.7884   1.9908   1.9933   2.2289   2.3039
     2.3122   2.3237   2.6990   2.7127   2.7761   2.7795   2.7846   2.7865
     2.9359   2.9369   2.9868   3.0821   3.0856   3.3105   3.3183   3.4455
     3.4723   3.4755   3.7453   3.7481   3.8547   3.8771   3.8787   3.9346
     3.9682   4.0614   4.0663   4.2995   4.3020   4.3853   4.3962   4.5073
     4.5192   4.5313   4.5470   4.6861   5.0700   5.3364   5.3582   5.4406
     5.4482   5.5229   5.6257   5.6269   5.6639   5.7047   5.7305   5.7398
     5.7497   5.7936   5.7946   5.8405   6.0076   6.0897   6.1018   6.1075
     6.1259   6.1330   6.1348   6.1398   6.1430   6.1472   6.1907   6.2213

          k =-0.2500 0.2500 0.2500 (167588 PWs)   bands (ev):

   -19.4439  -7.3778  -6.8267  -6.2996  -6.2983  -5.8697  -5.4606  -5.3679
    -5.3671  -5.1720  -5.1713  -5.0544  -5.0528  -4.9753  -4.9523  -4.8793
    -4.7947  -4.7905  -4.7520  -4.7513  -4.5915  -4.5741  -4.5733  -4.5726
    -4.5658  -4.5104  -4.5098  -4.4985  -4.4980  -4.4612  -4.4491  -4.4480
    -4.4065  -4.4062  -4.3731  -4.3720  -4.3210  -4.3193  -4.3099  -4.3079
    -4.3023  -4.2891  -4.2891  -4.2490  -4.2301  -4.2298  -4.2229  -4.2224
    -4.1911  -4.1418  -4.1259  -4.1251  -4.1230  -4.1213  -4.1136  -4.1085
    -4.1083  -4.1073  -4.0445  -4.0422  -3.9938  -3.9923  -3.9808  -3.9550
    -3.9544  -3.9351  -3.9313  -3.9310  -3.9280  -3.9243  -3.8756  -3.8747
    -3.8627  -3.8615  -3.7585  -3.7563  -3.7528  -3.7500  -3.7128  -3.7068
    -3.6892  -3.6617  -3.6596  -3.6315  -3.6304  -3.6126  -3.6091  -3.5979
    -3.5952  -3.5627  -3.5403  -3.5394  -3.5091  -3.5057  -3.4946  -3.4933
    -3.4927  -3.4789  -3.4650  -3.4623  -3.4282  -3.4257  -3.4075  -3.4042
    -3.3737  -3.3712  -3.3556  -3.3269  -3.3256  -3.2904  -3.2894  -3.2538
    -3.2461  -3.2455  -3.2320  -3.2308  -3.2265  -3.2261  -3.1897  -3.1776
    -3.1378  -3.1373  -3.1290  -3.1202  -3.1188  -3.1178  -3.0938  -3.0935
    -3.0730  -3.0722  -3.0710  -3.0447  -3.0442  -3.0369  -3.0342  -3.0333
    -2.9976  -2.9946  -2.9599  -2.9579  -2.9575  -2.9550  -2.9539  -2.8748
    -2.8652  -2.8620  -2.8604  -2.8600  -2.8587  -2.8555  -2.8541  -2.8531
    -2.8528  -2.8436  -2.8358  -2.8203  -2.8165  -2.8160  -2.8148  -2.8010
    -2.7964  -2.7591  -2.7579  -2.7573  -2.7536  -2.7524  -2.7349  -2.7342
    -2.7263  -2.7258  -2.7230  -2.6651  -2.6640  -2.6587  -2.6582  -2.6539
    -2.6533  -2.6258  -2.5668  -2.5657  -2.5650  -2.5622  -2.5512  -2.5496
    -2.5452  -2.5347  -2.5330  -2.4998  -2.4959  -2.4900  -2.4883  -2.4867
    -2.4859  -2.4488  -2.4471  -2.4382  -2.4368  -2.4356  -2.4348  -2.3933
    -2.3782  -2.3731  -2.3190  -2.3176  -2.3019  -2.2990  -2.2934  -2.2926
    -2.2461  -2.2429  -2.2206  -2.2066  -2.1918  -2.1904  -2.1881  -2.1677
    -2.1662  -2.1572  -2.1421  -2.1043  -2.1000  -2.0889  -2.0851  -2.0834
    -2.0759  -2.0734  -2.0646  -2.0581  -2.0575  -2.0539  -2.0508  -2.0481
    -2.0469  -2.0376  -2.0362  -2.0197  -2.0175  -2.0161  -2.0102  -2.0074
    -2.0060  -1.9843  -1.9831  -1.9728  -1.9701  -1.9663  -1.9640  -1.9272
    -1.8947  -1.8923  -1.8569  -1.8420  -1.8399  -1.8336  -1.8282  -1.8115
    -1.8053  -1.7947  -1.7900  -1.7893  -1.7879  -1.7878  -1.7848  -1.7560
    -1.7522  -1.7517  -1.7122  -1.7066  -1.6709  -1.6670  -1.6397  -1.6193
    -1.6117  -1.5992  -1.5843  -1.5763  -1.5737  -1.5595  -1.5529  -1.5402
    -1.5395  -1.5366  -1.5351  -1.5340  -1.5330  -1.5311  -1.5164  -1.5114
    -1.5058  -1.4832  -1.4798  -1.4646  -1.4629  -1.4381  -1.4373  -1.4339
    -1.4332  -1.4277  -1.4188  -1.4078  -1.3986  -1.3912  -1.3810  -1.3685
    -1.3656  -1.3532  -1.3427  -1.3252  -1.3220  -1.3159  -1.3076  -1.2783
    -1.2759  -1.2702  -1.2677  -1.2634  -1.2562  -1.2409  -1.2395  -1.2295
    -1.2209  -1.2197  -1.2096  -1.2080  -1.2072  -1.1998  -1.1939  -1.1823
    -1.1801  -1.1743  -1.1737  -1.1610  -1.1581  -1.1515  -1.1489  -1.1116
    -1.1072  -1.1038  -1.1020  -1.1012  -1.0978  -1.0630  -1.0462  -1.0444
    -1.0440  -1.0427  -1.0407  -1.0348  -1.0316  -1.0196  -1.0166  -0.9831
    -0.9808  -0.9759  -0.9746  -0.9533  -0.9524  -0.9430  -0.9142  -0.9057
    -0.8794  -0.8770  -0.8506  -0.8499  -0.8467  -0.8462  -0.8446  -0.8401
    -0.8359  -0.8347  -0.8320  -0.8303  -0.7995  -0.7987  -0.7822  -0.7774
    -0.7752  -0.7744  -0.7733  -0.7653  -0.7550  -0.4806  -0.4682  -0.4139
    -0.4021  -0.3732  -0.2124  -0.1480  -0.1470  -0.1119   0.1706   0.1748
     0.5003   0.5080   0.5999   0.6012   0.6405   0.6441   0.7848   0.7910
     0.9090   0.9116   1.0032   1.5965   1.6144   1.6158   1.6504   1.6601
     1.7009   1.7178   1.7848   1.7884   1.9908   1.9933   2.2289   2.3039
     2.3122   2.3237   2.6990   2.7127   2.7761   2.7795   2.7846   2.7865
     2.9359   2.9369   2.9868   3.0821   3.0856   3.3105   3.3183   3.4455
     3.4723   3.4755   3.7453   3.7481   3.8547   3.8771   3.8787   3.9347
     3.9683   4.0614   4.0663   4.2995   4.3020   4.3853   4.3962   4.5073
     4.5192   4.5313   4.5470   4.6862   5.0632   5.3339   5.3554   5.4403
     5.4468   5.5205   5.6260   5.6271   5.6808   5.7119   5.7360   5.7447
     5.7608   5.7938   5.7947   5.8405   6.0389   6.0737   6.1058   6.1100
     6.1176   6.1334   6.1380   6.1409   6.1466   6.1522   6.1983   6.2366

     the Fermi energy is     0.8610 ev

!    total energy              =   -7425.28808164 Ry
     Harris-Foulkes estimate   =   -7425.28808165 Ry
     estimated scf accuracy    <          4.5E-09 Ry

     The total energy is the sum of the following terms:

     one-electron contribution =  -48752.69745358 Ry
     hartree contribution      =   24927.02389538 Ry
     xc contribution           =   -3604.23248685 Ry
     ewald contribution        =   20004.62061642 Ry
     smearing contrib. (-TS)   =      -0.00265301 Ry

     convergence has been achieved in  28 iterations

     Writing output data file 2047061.save

     init_run     :    115.24s CPU    124.30s WALL (       1 calls)
     electrons    :   7461.08s CPU   7965.94s WALL (       1 calls)

     Called by init_run:
     wfcinit      :     76.98s CPU     84.82s WALL (       1 calls)
     potinit      :      7.81s CPU      8.30s WALL (       1 calls)

     Called by electrons:
     c_bands      :   5518.48s CPU   5920.95s WALL (      29 calls)
     sum_band     :   1190.40s CPU   1267.85s WALL (      29 calls)
     v_of_rho     :    146.51s CPU    160.62s WALL (      29 calls)
     newd         :    623.51s CPU    632.03s WALL (      29 calls)
     mix_rho      :      4.14s CPU      4.57s WALL (      29 calls)
     vdW_energy   :     13.43s CPU     15.20s WALL (      29 calls)
     vdW_ffts     :     73.82s CPU     80.99s WALL (      58 calls)
     vdW_v        :     17.78s CPU     18.76s WALL (      29 calls)

     Called by c_bands:
     init_us_2    :     25.88s CPU     26.31s WALL (     354 calls)
     cegterg      :   5458.35s CPU   5859.64s WALL (     174 calls)

     Called by *egterg:
     h_psi        :   2415.89s CPU   2780.80s WALL (     866 calls)
     s_psi        :    380.88s CPU    383.14s WALL (     866 calls)
     g_psi        :      4.72s CPU      4.70s WALL (     686 calls)
     cdiaghg      :   1514.07s CPU   1518.83s WALL (     854 calls)

     Called by h_psi:
     add_vuspsi   :    385.54s CPU    388.03s WALL (     866 calls)

     General routines
     calbec       :    544.94s CPU    547.40s WALL (    1040 calls)
     fft          :    183.56s CPU    195.51s WALL (    1914 calls)
     ffts         :      1.84s CPU      2.16s WALL (      58 calls)
     fftw         :   1509.88s CPU   1834.08s WALL (  468470 calls)
     interpolate  :      5.93s CPU      6.93s WALL (      58 calls)
     davcio       :      0.00s CPU      0.11s WALL (       6 calls)

     Parallel routines
     fft_scatter  :   1078.17s CPU   1307.48s WALL (  470442 calls)

     PWSCF        :     2h 6m CPU        2h15m WALL


   This run was terminated on:   2:19:49  25Jun2015            

=------------------------------------------------------------------------------=
   JOB DONE.
=------------------------------------------------------------------------------=
