Setting SGE environment for SCC

     Program PWSCF v.5.1.2 starts on 29Aug2015 at 20: 6: 2 

     This program is part of the open-source Quantum ESPRESSO suite
     for quantum simulation of materials; please cite
         "P. Giannozzi et al., J. Phys.:Condens. Matter 21 395502 (2009);
          URL http://www.quantum-espresso.org", 
     in publications or presentations arising from this work. More details at
     http://www.quantum-espresso.org/quote

     Parallel version (MPI), running on    32 processors
     R & G space division:  proc/nbgrp/npool/nimage =      32
     Reading input from top.O1.Au62.d.3.2.phi.0.psi.90.in
Warning: card &IONS ignored
Warning: card / ignored
Warning: card &CELL ignored
Warning: card / ignored

     Current dimensions of program PWSCF are:
     Max number of different atomic species (ntypx) = 10
     Max number of k-points (npk) =  40000
     Max angular momentum in pseudopotentials (lmaxx) =  3

     IMPORTANT: XC functional enforced from input :
     Exchange-correlation      = VDW-DF ( 1  4  4  0 1 0)
     Any further DFT definition will be discarded
     Please, verify this is what you really want


     Subspace diagonalization in iterative solution of the eigenvalue problem:
     a serial algorithm will be used


     Parallelization info
     --------------------
     sticks:   dense  smooth     PW     G-vecs:    dense   smooth      PW
     Min         578     289     74               118518    41891    5486
     Max         579     290     75               118533    41932    5497
     Sum       18505    9265   2385              3792731  1341081  175711


     Title: 
     top.O1.Au62.d.3.2.phi.0.psi.90                                             


     bravais-lattice index     =            8
     lattice parameter (alat)  =      24.1233  a.u.
     unit-cell volume          =   28076.2361 (a.u.)^3
     number of atoms/cell      =           75
     number of atomic types    =            3
     number of electrons       =       800.00
     number of Kohn-Sham states=          480
     kinetic-energy cutoff     =      50.0000  Ry
     charge density cutoff     =     400.0000  Ry
     convergence threshold     =      1.0E-08
     mixing beta               =       0.7000
     number of iterations used =            8  plain     mixing
     Exchange-correlation      = VDW-DF ( 1  4  4  0 1 0)

     celldm(1)=  24.123277  celldm(2)=   1.000000  celldm(3)=   2.000000
     celldm(4)=   0.000000  celldm(5)=   0.000000  celldm(6)=   0.000000

     crystal axes: (cart. coord. in units of alat)
               a(1) = (   1.000000   0.000000   0.000000 )  
               a(2) = (   0.000000   1.000000   0.000000 )  
               a(3) = (   0.000000   0.000000   2.000000 )  

     reciprocal axes: (cart. coord. in units 2 pi/alat)
               b(1) = (  1.000000  0.000000  0.000000 )  
               b(2) = (  0.000000  1.000000  0.000000 )  
               b(3) = (  0.000000  0.000000  0.500000 )  


     PseudoPot. # 1 for Au read from file:
     /home/scc/andrejb/qe/pseudo/Au.pbe-nd-van.UPF
     MD5 check sum: 458681b50f36d87ef23c61b04bba420a
     Pseudo is Ultrasoft + core correction, Zval = 11.0
     Generated by new atomic code, or converted to UPF format
     Using radial grid of  985 points,  3 beta functions with: 
                l(1) =   1
                l(2) =   2
                l(3) =   2
     Q(r) pseudized with  8 coefficients,  rinner =    1.100   1.100   1.100
                                                       1.100   1.100

     PseudoPot. # 2 for H  read from file:
     /home/scc/andrejb/qe/pseudo/H.pbe-van_ak.UPF
     MD5 check sum: 403db7282739603aa925980fa9b8608d
     Pseudo is Ultrasoft, Zval =  1.0
     Generated by new atomic code, or converted to UPF format
     Using radial grid of  615 points,  1 beta functions with: 
                l(1) =   0
     Q(r) pseudized with  8 coefficients,  rinner =    0.800

     PseudoPot. # 3 for O  read from file:
     /home/scc/andrejb/qe/pseudo/O.pbe-van_ak.UPF
     MD5 check sum: 4b8c549914a63cae506c6ff22b5af4fe
     Pseudo is Ultrasoft, Zval =  6.0
     Generated by new atomic code, or converted to UPF format
     Using radial grid of  737 points,  4 beta functions with: 
                l(1) =   0
                l(2) =   0
                l(3) =   1
                l(4) =   1
     Q(r) pseudized with  8 coefficients,  rinner =    0.800   0.800   0.800


     vdW kernel table read from file vdW_kernel_table
     MD5 check sum: 48e77a2e26edf626eeb0eaa751ad5cac

     atomic species   valence    mass     pseudopotential
        Au            11.00   196.96657     Au( 1.00)
        H              1.00     1.01000     H ( 1.00)
        O              6.00    16.00000     O ( 1.00)

     No symmetry found



   Cartesian axes

     site n.     atom                  positions (alat units)
         1           O   tau(   1) = (   0.4998324   0.3332216   0.7499944  )
         2           H   tau(   2) = (   0.4527548   0.2877277   0.7108230  )
         3           H   tau(   3) = (   0.5454827   0.2853639   0.7879961  )
         4           Au  tau(   4) = (   0.0000000   0.0000000   0.0000000  )
         5           Au  tau(   5) = (   0.3332217   0.0000000   0.0000000  )
         6           Au  tau(   6) = (   0.6664434   0.0000000   0.0000000  )
         7           Au  tau(   7) = (   0.1666109   0.1666109   0.0000000  )
         8           Au  tau(   8) = (   0.4998326   0.1666109   0.0000000  )
         9           Au  tau(   9) = (   0.8330542   0.1666109   0.0000000  )
        10           Au  tau(  10) = (   0.0000000   0.3332217   0.0000000  )
        11           Au  tau(  11) = (   0.3332217   0.3332217   0.0000000  )
        12           Au  tau(  12) = (   0.6664434   0.3332217   0.0000000  )
        13           Au  tau(  13) = (   0.1666109   0.4998326   0.0000000  )
        14           Au  tau(  14) = (   0.4998326   0.4998326   0.0000000  )
        15           Au  tau(  15) = (   0.8330542   0.4998326   0.0000000  )
        16           Au  tau(  16) = (   0.0000000   0.6664434   0.0000000  )
        17           Au  tau(  17) = (   0.3332217   0.6664434   0.0000000  )
        18           Au  tau(  18) = (   0.6664434   0.6664434   0.0000000  )
        19           Au  tau(  19) = (   0.1666109   0.8330542   0.0000000  )
        20           Au  tau(  20) = (   0.4998326   0.8330542   0.0000000  )
        21           Au  tau(  21) = (   0.8330542   0.8330542   0.0000000  )
        22           Au  tau(  22) = (   0.1666109   0.0000000   0.1666109  )
        23           Au  tau(  23) = (   0.4998326   0.0000000   0.1666109  )
        24           Au  tau(  24) = (   0.8330542   0.0000000   0.1666109  )
        25           Au  tau(  25) = (   0.0000000   0.1666109   0.1666109  )
        26           Au  tau(  26) = (   0.3332217   0.1666109   0.1666109  )
        27           Au  tau(  27) = (   0.6664434   0.1666109   0.1666109  )
        28           Au  tau(  28) = (   0.1666109   0.3332217   0.1666109  )
        29           Au  tau(  29) = (   0.4998326   0.3332217   0.1666109  )
        30           Au  tau(  30) = (   0.8330542   0.3332217   0.1666109  )
        31           Au  tau(  31) = (   0.0000000   0.4998326   0.1666109  )
        32           Au  tau(  32) = (   0.3332217   0.4998326   0.1666109  )
        33           Au  tau(  33) = (   0.6664434   0.4998326   0.1666109  )
        34           Au  tau(  34) = (   0.1666109   0.6664434   0.1666109  )
        35           Au  tau(  35) = (   0.4998326   0.6664434   0.1666109  )
        36           Au  tau(  36) = (   0.8330542   0.6664434   0.1666109  )
        37           Au  tau(  37) = (   0.0000000   0.8330542   0.1666109  )
        38           Au  tau(  38) = (   0.3332217   0.8330542   0.1666109  )
        39           Au  tau(  39) = (   0.6664434   0.8330542   0.1666109  )
        40           Au  tau(  40) = (  -0.0000182  -0.0000182   0.3335478  )
        41           Au  tau(  41) = (   0.3332215  -0.0000181   0.3335473  )
        42           Au  tau(  42) = (   0.6664447  -0.0000183   0.3335481  )
        43           Au  tau(  43) = (  -0.0000181   0.3332215   0.3335473  )
        44           Au  tau(  44) = (   0.3332215   0.3332215   0.3335468  )
        45           Au  tau(  45) = (   0.6664445   0.3332215   0.3335477  )
        46           Au  tau(  46) = (  -0.0000183   0.6664447   0.3335481  )
        47           Au  tau(  47) = (   0.3332215   0.6664445   0.3335477  )
        48           Au  tau(  48) = (   0.6664446   0.6664446   0.3335486  )
        49           Au  tau(  49) = (   0.1666097   0.1666097   0.3335483  )
        50           Au  tau(  50) = (   0.4998320   0.1666098   0.3335477  )
        51           Au  tau(  51) = (   0.8330732   0.1666096   0.3335480  )
        52           Au  tau(  52) = (   0.1666098   0.4998320   0.3335477  )
        53           Au  tau(  53) = (   0.4998322   0.4998322   0.3335470  )
        54           Au  tau(  54) = (   0.8330731   0.4998322   0.3335474  )
        55           Au  tau(  55) = (   0.1666096   0.8330732   0.3335480  )
        56           Au  tau(  56) = (   0.4998322   0.8330731   0.3335474  )
        57           Au  tau(  57) = (   0.8330731   0.8330731   0.3335478  )
        58           Au  tau(  58) = (   0.1666104  -0.0000111   0.4993095  )
        59           Au  tau(  59) = (   0.4998323  -0.0000112   0.4993099  )
        60           Au  tau(  60) = (   0.8330660  -0.0000111   0.4993009  )
        61           Au  tau(  61) = (  -0.0000111   0.1666104   0.4993095  )
        62           Au  tau(  62) = (   0.3332213   0.1666106   0.4993185  )
        63           Au  tau(  63) = (   0.6664437   0.1666106   0.4993187  )
        64           Au  tau(  64) = (   0.1666106   0.3332213   0.4993185  )
        65           Au  tau(  65) = (   0.4998324   0.3332216   0.4993185  )
        66           Au  tau(  66) = (   0.8330658   0.3332215   0.4993102  )
        67           Au  tau(  67) = (  -0.0000112   0.4998323   0.4993099  )
        68           Au  tau(  68) = (   0.3332216   0.4998324   0.4993185  )
        69           Au  tau(  69) = (   0.6664437   0.4998325   0.4993187  )
        70           Au  tau(  70) = (   0.1666106   0.6664437   0.4993187  )
        71           Au  tau(  71) = (   0.4998325   0.6664437   0.4993187  )
        72           Au  tau(  72) = (   0.8330658   0.6664438   0.4993102  )
        73           Au  tau(  73) = (  -0.0000111   0.8330660   0.4993009  )
        74           Au  tau(  74) = (   0.3332215   0.8330658   0.4993102  )
        75           Au  tau(  75) = (   0.6664438   0.8330658   0.4993102  )

     number of k points=     6  Marzari-Vanderbilt smearing, width (Ry)=  0.0200
                       cart. coord. in units 2pi/alat
        k(    1) = (   0.2500000   0.2500000   0.0833333), wk =   0.3333333
        k(    2) = (   0.2500000   0.2500000  -0.2500000), wk =   0.3333333
        k(    3) = (  -0.2500000  -0.2500000   0.0833333), wk =   0.3333333
        k(    4) = (  -0.2500000   0.2500000  -0.0833333), wk =   0.3333333
        k(    5) = (   0.2500000  -0.2500000  -0.0833333), wk =   0.3333333
        k(    6) = (  -0.2500000   0.2500000   0.2500000), wk =   0.3333333

     Dense  grid:  3792731 G-vectors     FFT dimensions: ( 160, 160, 320)

     Smooth grid:  1341081 G-vectors     FFT dimensions: ( 120, 120, 225)

     Largest allocated arrays     est. size (Mb)     dimensions
        Kohn-Sham Wavefunctions        38.58 Mb     (    5267,  480)
        NL pseudopotentials            76.03 Mb     (    5267,  946)
        Each V/rho on FFT grid          3.91 Mb     (  256000)
        Each G-vector array             0.90 Mb     (  118520)
        G-vector shells                 0.08 Mb     (   10286)
     Largest temporary arrays     est. size (Mb)     dimensions
        Auxiliary wavefunctions       154.31 Mb     (    5267, 1920)
        Each subspace H/S matrix       56.25 Mb     (    1920, 1920)
        Each <psi_i|beta_j> matrix      6.93 Mb     (     946,  480)
        Arrays for rho mixing          31.25 Mb     (  256000,    8)

     Initial potential from superposition of free atoms
     Check: negative starting charge=   -1.945143

     starting charge  799.16392, renormalised to  800.00000

     negative rho (up, down):  1.947E+00 0.000E+00


     ************************************************************************
     *
     * You are using vdW-DF for exchange-correlation in this calculation.
     * Please cite the following three references that made this development
     * possible:
     *
     *   M. Dion, H. Rydberg, E. Schroder, D. C. Langreth, and
     *   B. I. Lundqvist, Phys. Rev. Lett. 92, 246401 (2004).
     *
     *   T. Thonhauser, V. R. Cooper, S. Li, A. Puzder, P. Hyldgaard, and
     *   D. C. Langreth, Phys. Rev. B 76, 125112 (2007).
     *
     *   G. Roman-Perez and J. M. Soler, Phys. Rev. Lett. 103, 096102 (2009).
     *
     *
     * If you are using vdW-DF2, please also cite:
     *
     *   K. Lee, E. D. Murray, L. Kong, B. I. Lundqvist, and
     *   D. C. Langreth, Phys. Rev. B 82, 081101(R) (2010).
     *
     *
     * If you are calculating the stress with vdW-DF, please also cite:
     *
     *   R. Sabatini, E. Kucukbenli, B. Kolb, T. Thonhauser, and
     *   S. de Gironcoli, J. Phys.: Condens. Matter 24, 424209 (2012).
     *
     ************************************************************************

     Carrying out vdW-DF run using the following parameters:

     Nqs =      20    Nr_points =    1024   r_max =   100.000
     q_mesh =
               0.00001000     0.04494208     0.09755937     0.15916263
               0.23128650     0.31572767     0.41458969     0.53033537
               0.66584808     0.82450364     1.01025438     1.22772762
               1.48234092     1.78043706     2.12944203     2.53805004
               3.01644009     3.57652955     4.23227104     5.00000000

     Gradients computed in reciprocal space

     ************************************************************************


     Starting wfc are  654 randomized atomic wfcs

     total cpu time spent up to now is      128.2 secs

     Self-consistent Calculation

     iteration #  1     ecut=    50.00 Ry     beta=0.70
     Davidson diagonalization with overlap
     ethr =  1.00E-02,  avg # of iterations =  3.0

     Threshold (ethr) on eigenvalues was too large:
     Diagonalizing with lowered threshold

     Davidson diagonalization with overlap
     ethr =  4.24E-04,  avg # of iterations =  2.0

     negative rho (up, down):  1.947E+00 0.000E+00

     total cpu time spent up to now is      564.5 secs

     total energy              =   -7423.02572327 Ry
     Harris-Foulkes estimate   =   -7426.07775562 Ry
     estimated scf accuracy    <       3.77025207 Ry

     iteration #  2     ecut=    50.00 Ry     beta=0.70
     Davidson diagonalization with overlap
     ethr =  4.71E-04,  avg # of iterations = 11.3

     negative rho (up, down):  1.942E+00 0.000E+00

     total cpu time spent up to now is     1329.9 secs

     total energy              =   -7415.03508658 Ry
     Harris-Foulkes estimate   =   -7432.68109709 Ry
     estimated scf accuracy    <      92.20392284 Ry

     iteration #  3     ecut=    50.00 Ry     beta=0.70
     Davidson diagonalization with overlap
     ethr =  4.71E-04,  avg # of iterations =  6.0

     negative rho (up, down):  1.953E+00 0.000E+00

     total cpu time spent up to now is     1805.4 secs

     total energy              =   -7424.15256744 Ry
     Harris-Foulkes estimate   =   -7425.88038315 Ry
     estimated scf accuracy    <       7.12746976 Ry

     iteration #  4     ecut=    50.00 Ry     beta=0.70
     Davidson diagonalization with overlap
     ethr =  4.71E-04,  avg # of iterations =  6.0

     negative rho (up, down):  1.955E+00 0.000E+00

     total cpu time spent up to now is     2084.3 secs

     total energy              =   -7424.75235310 Ry
     Harris-Foulkes estimate   =   -7425.73698137 Ry
     estimated scf accuracy    <       6.24075808 Ry

     iteration #  5     ecut=    50.00 Ry     beta=0.70
     Davidson diagonalization with overlap
     ethr =  4.71E-04,  avg # of iterations =  6.5

     negative rho (up, down):  1.963E+00 0.000E+00

     total cpu time spent up to now is     2367.5 secs

     total energy              =   -7425.15081248 Ry
     Harris-Foulkes estimate   =   -7425.51635098 Ry
     estimated scf accuracy    <       2.53801951 Ry

     iteration #  6     ecut=    50.00 Ry     beta=0.70
     Davidson diagonalization with overlap
     ethr =  3.17E-04,  avg # of iterations =  5.5

     negative rho (up, down):  1.967E+00 0.000E+00

     total cpu time spent up to now is     2626.4 secs

     total energy              =   -7425.28009848 Ry
     Harris-Foulkes estimate   =   -7425.33011919 Ry
     estimated scf accuracy    <       0.16483617 Ry

     iteration #  7     ecut=    50.00 Ry     beta=0.70
     Davidson diagonalization with overlap
     ethr =  2.06E-05,  avg # of iterations =  7.8

     negative rho (up, down):  1.970E+00 0.000E+00

     total cpu time spent up to now is     2947.0 secs

     total energy              =   -7425.28172123 Ry
     Harris-Foulkes estimate   =   -7425.32701132 Ry
     estimated scf accuracy    <       0.23082632 Ry

     iteration #  8     ecut=    50.00 Ry     beta=0.70
     Davidson diagonalization with overlap
     ethr =  2.06E-05,  avg # of iterations =  3.0

     negative rho (up, down):  1.971E+00 0.000E+00

     total cpu time spent up to now is     3197.0 secs

     total energy              =   -7425.29081416 Ry
     Harris-Foulkes estimate   =   -7425.30896650 Ry
     estimated scf accuracy    <       0.07237779 Ry

     iteration #  9     ecut=    50.00 Ry     beta=0.70
     Davidson diagonalization with overlap
     ethr =  9.05E-06,  avg # of iterations =  6.2

     negative rho (up, down):  1.972E+00 0.000E+00

     total cpu time spent up to now is     3474.6 secs

     total energy              =   -7425.29252238 Ry
     Harris-Foulkes estimate   =   -7425.30166857 Ry
     estimated scf accuracy    <       0.02995391 Ry

     iteration # 10     ecut=    50.00 Ry     beta=0.70
     Davidson diagonalization with overlap
     ethr =  3.74E-06,  avg # of iterations =  6.2

     negative rho (up, down):  1.973E+00 0.000E+00

     total cpu time spent up to now is     3777.3 secs

     total energy              =   -7425.29399166 Ry
     Harris-Foulkes estimate   =   -7425.29680019 Ry
     estimated scf accuracy    <       0.00806391 Ry

     iteration # 11     ecut=    50.00 Ry     beta=0.70
     Davidson diagonalization with overlap
     ethr =  1.01E-06,  avg # of iterations =  7.0

     negative rho (up, down):  1.974E+00 0.000E+00

     total cpu time spent up to now is     4066.0 secs

     total energy              =   -7425.29453241 Ry
     Harris-Foulkes estimate   =   -7425.29554611 Ry
     estimated scf accuracy    <       0.00345446 Ry

     iteration # 12     ecut=    50.00 Ry     beta=0.70
     Davidson diagonalization with overlap
     ethr =  4.32E-07,  avg # of iterations =  2.3

     negative rho (up, down):  1.974E+00 0.000E+00

     total cpu time spent up to now is     4284.0 secs

     total energy              =   -7425.29419547 Ry
     Harris-Foulkes estimate   =   -7425.29503814 Ry
     estimated scf accuracy    <       0.00143325 Ry

     iteration # 13     ecut=    50.00 Ry     beta=0.70
     Davidson diagonalization with overlap
     ethr =  1.79E-07,  avg # of iterations =  6.7

     negative rho (up, down):  1.974E+00 0.000E+00

     total cpu time spent up to now is     4721.7 secs

     total energy              =   -7425.29322987 Ry
     Harris-Foulkes estimate   =   -7425.29626368 Ry
     estimated scf accuracy    <       0.01629315 Ry

     iteration # 14     ecut=    50.00 Ry     beta=0.70
     Davidson diagonalization with overlap
     ethr =  1.79E-07,  avg # of iterations =  3.0

     negative rho (up, down):  1.974E+00 0.000E+00

     total cpu time spent up to now is     5016.3 secs

     total energy              =   -7425.29462824 Ry
     Harris-Foulkes estimate   =   -7425.29478863 Ry
     estimated scf accuracy    <       0.00058118 Ry

     iteration # 15     ecut=    50.00 Ry     beta=0.70
     Davidson diagonalization with overlap
     ethr =  7.26E-08,  avg # of iterations =  2.0

     negative rho (up, down):  1.974E+00 0.000E+00

     total cpu time spent up to now is     5232.8 secs

     total energy              =   -7425.29469600 Ry
     Harris-Foulkes estimate   =   -7425.29474173 Ry
     estimated scf accuracy    <       0.00017479 Ry

     iteration # 16     ecut=    50.00 Ry     beta=0.70
     Davidson diagonalization with overlap
     ethr =  2.18E-08,  avg # of iterations =  2.0

     negative rho (up, down):  1.974E+00 0.000E+00

     total cpu time spent up to now is     5445.3 secs

     total energy              =   -7425.29467172 Ry
     Harris-Foulkes estimate   =   -7425.29478142 Ry
     estimated scf accuracy    <       0.00096029 Ry

     iteration # 17     ecut=    50.00 Ry     beta=0.70
     Davidson diagonalization with overlap
     ethr =  2.18E-08,  avg # of iterations =  3.0

     negative rho (up, down):  1.974E+00 0.000E+00

     total cpu time spent up to now is     5667.1 secs

     total energy              =   -7425.29472521 Ry
     Harris-Foulkes estimate   =   -7425.29472786 Ry
     estimated scf accuracy    <       0.00000747 Ry

     iteration # 18     ecut=    50.00 Ry     beta=0.70
     Davidson diagonalization with overlap
     ethr =  9.34E-10,  avg # of iterations =  3.0

     negative rho (up, down):  1.974E+00 0.000E+00

     total cpu time spent up to now is     5950.4 secs

     total energy              =   -7425.29472566 Ry
     Harris-Foulkes estimate   =   -7425.29472841 Ry
     estimated scf accuracy    <       0.00001037 Ry

     iteration # 19     ecut=    50.00 Ry     beta=0.70
     Davidson diagonalization with overlap
     ethr =  9.34E-10,  avg # of iterations =  2.0

     negative rho (up, down):  1.974E+00 0.000E+00

     total cpu time spent up to now is     6164.2 secs

     total energy              =   -7425.29472655 Ry
     Harris-Foulkes estimate   =   -7425.29472793 Ry
     estimated scf accuracy    <       0.00000719 Ry

     iteration # 20     ecut=    50.00 Ry     beta=0.70
     Davidson diagonalization with overlap
     ethr =  8.98E-10,  avg # of iterations =  2.0

     negative rho (up, down):  1.974E+00 0.000E+00

     total cpu time spent up to now is     6374.9 secs

     total energy              =   -7425.29472730 Ry
     Harris-Foulkes estimate   =   -7425.29472742 Ry
     estimated scf accuracy    <       0.00000062 Ry

     iteration # 21     ecut=    50.00 Ry     beta=0.70
     Davidson diagonalization with overlap
     ethr =  7.77E-11,  avg # of iterations =  3.0

     negative rho (up, down):  1.974E+00 0.000E+00

     total cpu time spent up to now is     6618.4 secs

     total energy              =   -7425.29472739 Ry
     Harris-Foulkes estimate   =   -7425.29472746 Ry
     estimated scf accuracy    <       0.00000028 Ry

     iteration # 22     ecut=    50.00 Ry     beta=0.70
     Davidson diagonalization with overlap
     ethr =  3.56E-11,  avg # of iterations =  3.0

     negative rho (up, down):  1.974E+00 0.000E+00

     total cpu time spent up to now is     6846.9 secs

     total energy              =   -7425.29472744 Ry
     Harris-Foulkes estimate   =   -7425.29472747 Ry
     estimated scf accuracy    <       0.00000013 Ry

     iteration # 23     ecut=    50.00 Ry     beta=0.70
     Davidson diagonalization with overlap
     ethr =  1.64E-11,  avg # of iterations =  3.0

     negative rho (up, down):  1.974E+00 0.000E+00

     total cpu time spent up to now is     7076.5 secs

     total energy              =   -7425.29472745 Ry
     Harris-Foulkes estimate   =   -7425.29472746 Ry
     estimated scf accuracy    <       0.00000002 Ry

     iteration # 24     ecut=    50.00 Ry     beta=0.70
     Davidson diagonalization with overlap
     ethr =  2.18E-12,  avg # of iterations =  3.0

     negative rho (up, down):  1.974E+00 0.000E+00

     total cpu time spent up to now is     7384.2 secs

     total energy              =   -7425.29472745 Ry
     Harris-Foulkes estimate   =   -7425.29472746 Ry
     estimated scf accuracy    <       0.00000008 Ry

     iteration # 25     ecut=    50.00 Ry     beta=0.70
     Davidson diagonalization with overlap
     ethr =  2.18E-12,  avg # of iterations =  3.0

     negative rho (up, down):  1.974E+00 0.000E+00

     total cpu time spent up to now is     7644.9 secs

     total energy              =   -7425.29472746 Ry
     Harris-Foulkes estimate   =   -7425.29472747 Ry
     estimated scf accuracy    <       0.00000002 Ry

     iteration # 26     ecut=    50.00 Ry     beta=0.70
     Davidson diagonalization with overlap
     ethr =  2.18E-12,  avg # of iterations =  2.0

     negative rho (up, down):  1.974E+00 0.000E+00

     total cpu time spent up to now is     7863.2 secs

     End of self-consistent calculation

          k = 0.2500 0.2500 0.0833 (167653 PWs)   bands (ev):

   -19.5511  -7.3796  -6.8208  -6.2927  -6.2920  -5.8628  -5.4543  -5.3608
    -5.3603  -5.1647  -5.1644  -5.0475  -5.0466  -4.9682  -4.9454  -4.8722
    -4.7873  -4.7835  -4.7449  -4.7445  -4.5840  -4.5670  -4.5659  -4.5656
    -4.5587  -4.5031  -4.5030  -4.4912  -4.4909  -4.4541  -4.4419  -4.4412
    -4.3993  -4.3992  -4.3659  -4.3646  -4.3132  -4.3125  -4.3024  -4.3007
    -4.2951  -4.2821  -4.2820  -4.2413  -4.2228  -4.2226  -4.2157  -4.2154
    -4.1837  -4.1342  -4.1185  -4.1181  -4.1160  -4.1143  -4.1066  -4.1010
    -4.1009  -4.1003  -4.0367  -4.0355  -3.9860  -3.9855  -3.9734  -3.9476
    -3.9470  -3.9280  -3.9244  -3.9239  -3.9199  -3.9170  -3.8680  -3.8677
    -3.8549  -3.8546  -3.7506  -3.7494  -3.7451  -3.7431  -3.7057  -3.6982
    -3.6823  -3.6530  -3.6526  -3.6244  -3.6237  -3.6087  -3.6020  -3.5911
    -3.5884  -3.5857  -3.5333  -3.5326  -3.5142  -3.4990  -3.4879  -3.4865
    -3.4861  -3.4840  -3.4578  -3.4574  -3.4214  -3.4211  -3.3998  -3.3981
    -3.3665  -3.3650  -3.3478  -3.3201  -3.3197  -3.2827  -3.2823  -3.2467
    -3.2391  -3.2385  -3.2247  -3.2241  -3.2195  -3.2192  -3.1817  -3.1705
    -3.1303  -3.1300  -3.1218  -3.1126  -3.1119  -3.1106  -3.0862  -3.0860
    -3.0650  -3.0647  -3.0641  -3.0374  -3.0371  -3.0296  -3.0271  -3.0265
    -2.9906  -2.9870  -2.9515  -2.9508  -2.9503  -2.9475  -2.9469  -2.8676
    -2.8579  -2.8539  -2.8532  -2.8523  -2.8518  -2.8479  -2.8468  -2.8462
    -2.8460  -2.8365  -2.8287  -2.8125  -2.8097  -2.8091  -2.8082  -2.7939
    -2.7893  -2.7514  -2.7505  -2.7500  -2.7462  -2.7456  -2.7274  -2.7271
    -2.7187  -2.7186  -2.7159  -2.6570  -2.6569  -2.6513  -2.6511  -2.6472
    -2.6462  -2.6187  -2.5592  -2.5581  -2.5575  -2.5551  -2.5438  -2.5422
    -2.5381  -2.5268  -2.5259  -2.4906  -2.4890  -2.4811  -2.4804  -2.4796
    -2.4791  -2.4402  -2.4397  -2.4299  -2.4294  -2.4281  -2.4277  -2.3869
    -2.3721  -2.3650  -2.3110  -2.3105  -2.2932  -2.2913  -2.2868  -2.2854
    -2.2374  -2.2363  -2.2129  -2.1979  -2.1832  -2.1823  -2.1812  -2.1600
    -2.1592  -2.1497  -2.1369  -2.0947  -2.0926  -2.0801  -2.0777  -2.0770
    -2.0674  -2.0663  -2.0551  -2.0518  -2.0507  -2.0463  -2.0430  -2.0413
    -2.0405  -2.0294  -2.0287  -2.0121  -2.0107  -2.0089  -2.0027  -1.9995
    -1.9994  -1.9767  -1.9758  -1.9692  -1.9625  -1.9615  -1.9570  -1.9216
    -1.8889  -1.8851  -1.8494  -1.8335  -1.8324  -1.8298  -1.8213  -1.8093
    -1.7977  -1.7916  -1.7831  -1.7824  -1.7810  -1.7796  -1.7779  -1.7554
    -1.7451  -1.7448  -1.7203  -1.6990  -1.6856  -1.6597  -1.6525  -1.6117
    -1.6085  -1.5955  -1.5765  -1.5690  -1.5680  -1.5516  -1.5489  -1.5339
    -1.5326  -1.5284  -1.5280  -1.5266  -1.5262  -1.5238  -1.5170  -1.5033
    -1.5009  -1.4796  -1.4754  -1.4568  -1.4561  -1.4309  -1.4296  -1.4270
    -1.4263  -1.4216  -1.4145  -1.3991  -1.3942  -1.3836  -1.3747  -1.3610
    -1.3605  -1.3464  -1.3387  -1.3161  -1.3155  -1.3081  -1.3018  -1.2719
    -1.2701  -1.2631  -1.2607  -1.2549  -1.2492  -1.2331  -1.2324  -1.2212
    -1.2139  -1.2124  -1.2016  -1.2006  -1.1999  -1.1926  -1.1859  -1.1751
    -1.1742  -1.1668  -1.1667  -1.1541  -1.1503  -1.1439  -1.1421  -1.1041
    -1.1011  -1.0958  -1.0947  -1.0942  -1.0901  -1.0551  -1.0382  -1.0377
    -1.0370  -1.0349  -1.0330  -1.0275  -1.0267  -1.0122  -1.0091  -0.9759
    -0.9722  -0.9684  -0.9672  -0.9456  -0.9452  -0.9356  -0.9061  -0.8982
    -0.8709  -0.8703  -0.8429  -0.8427  -0.8395  -0.8387  -0.8376  -0.8334
    -0.8285  -0.8267  -0.8243  -0.8235  -0.7918  -0.7917  -0.7740  -0.7701
    -0.7685  -0.7677  -0.7664  -0.7574  -0.7476  -0.4721  -0.4613  -0.4060
    -0.3959  -0.3658  -0.2060  -0.1406  -0.1400  -0.1044   0.1785   0.1811
     0.5082   0.5141   0.6074   0.6080   0.6487   0.6495   0.7917   0.7971
     0.9167   0.9188   1.0077   1.6037   1.6218   1.6230   1.6606   1.6673
     1.7089   1.7170   1.7916   1.7951   1.9991   1.9999   2.2348   2.3134
     2.3173   2.3309   2.7089   2.7157   2.7847   2.7853   2.7925   2.7931
     2.9427   2.9448   2.9861   3.0865   3.0889   3.3184   3.3209   3.4537
     3.4810   3.4829   3.7515   3.7538   3.8656   3.8845   3.8851   3.9301
     3.9607   4.0705   4.0720   4.3070   4.3094   4.3954   4.3976   4.5206
     4.5227   4.5432   4.5521   4.6710   4.9779   5.3357   5.3528   5.4456
     5.4514   5.5114   5.6300   5.6326   5.6484   5.6998   5.7267   5.7476
     5.7510   5.7983   5.8017   5.8433   6.0079   6.0672   6.1064   6.1120
     6.1282   6.1329   6.1421   6.1429   6.1538   6.1543   6.1763   6.2119

          k = 0.2500 0.2500-0.2500 (167588 PWs)   bands (ev):

   -19.5511  -7.3796  -6.8208  -6.2927  -6.2920  -5.8628  -5.4543  -5.3608
    -5.3603  -5.1646  -5.1644  -5.0475  -5.0466  -4.9682  -4.9454  -4.8722
    -4.7873  -4.7835  -4.7449  -4.7445  -4.5840  -4.5670  -4.5659  -4.5656
    -4.5587  -4.5031  -4.5030  -4.4912  -4.4909  -4.4541  -4.4419  -4.4412
    -4.3993  -4.3992  -4.3659  -4.3646  -4.3132  -4.3125  -4.3024  -4.3007
    -4.2951  -4.2821  -4.2820  -4.2413  -4.2228  -4.2226  -4.2157  -4.2154
    -4.1837  -4.1342  -4.1185  -4.1181  -4.1160  -4.1143  -4.1066  -4.1010
    -4.1009  -4.1003  -4.0367  -4.0355  -3.9860  -3.9855  -3.9735  -3.9476
    -3.9470  -3.9280  -3.9244  -3.9239  -3.9199  -3.9170  -3.8680  -3.8677
    -3.8549  -3.8546  -3.7506  -3.7494  -3.7451  -3.7431  -3.7057  -3.6982
    -3.6823  -3.6530  -3.6526  -3.6244  -3.6237  -3.6087  -3.6020  -3.5911
    -3.5884  -3.5857  -3.5333  -3.5326  -3.5142  -3.4990  -3.4879  -3.4865
    -3.4861  -3.4840  -3.4578  -3.4574  -3.4214  -3.4211  -3.3998  -3.3981
    -3.3665  -3.3650  -3.3478  -3.3201  -3.3197  -3.2827  -3.2822  -3.2467
    -3.2391  -3.2385  -3.2247  -3.2241  -3.2195  -3.2192  -3.1817  -3.1706
    -3.1303  -3.1300  -3.1218  -3.1126  -3.1119  -3.1106  -3.0862  -3.0860
    -3.0650  -3.0647  -3.0641  -3.0374  -3.0371  -3.0296  -3.0271  -3.0265
    -2.9906  -2.9870  -2.9515  -2.9508  -2.9503  -2.9475  -2.9469  -2.8676
    -2.8579  -2.8539  -2.8532  -2.8523  -2.8518  -2.8479  -2.8467  -2.8462
    -2.8460  -2.8365  -2.8287  -2.8125  -2.8097  -2.8091  -2.8082  -2.7939
    -2.7893  -2.7514  -2.7505  -2.7500  -2.7462  -2.7456  -2.7274  -2.7271
    -2.7187  -2.7186  -2.7159  -2.6570  -2.6569  -2.6513  -2.6510  -2.6472
    -2.6462  -2.6187  -2.5592  -2.5581  -2.5575  -2.5551  -2.5438  -2.5422
    -2.5381  -2.5268  -2.5259  -2.4906  -2.4890  -2.4811  -2.4804  -2.4796
    -2.4791  -2.4402  -2.4397  -2.4299  -2.4294  -2.4281  -2.4277  -2.3869
    -2.3721  -2.3650  -2.3110  -2.3105  -2.2932  -2.2913  -2.2868  -2.2854
    -2.2374  -2.2363  -2.2129  -2.1979  -2.1832  -2.1823  -2.1812  -2.1599
    -2.1592  -2.1497  -2.1369  -2.0947  -2.0926  -2.0801  -2.0777  -2.0770
    -2.0674  -2.0663  -2.0551  -2.0518  -2.0507  -2.0463  -2.0430  -2.0413
    -2.0405  -2.0294  -2.0287  -2.0121  -2.0107  -2.0089  -2.0027  -1.9995
    -1.9994  -1.9767  -1.9758  -1.9692  -1.9625  -1.9615  -1.9570  -1.9216
    -1.8889  -1.8851  -1.8494  -1.8335  -1.8324  -1.8298  -1.8212  -1.8093
    -1.7977  -1.7916  -1.7831  -1.7824  -1.7810  -1.7796  -1.7779  -1.7554
    -1.7451  -1.7448  -1.7203  -1.6990  -1.6856  -1.6597  -1.6525  -1.6117
    -1.6085  -1.5955  -1.5765  -1.5690  -1.5680  -1.5516  -1.5489  -1.5339
    -1.5326  -1.5284  -1.5280  -1.5266  -1.5262  -1.5237  -1.5170  -1.5033
    -1.5009  -1.4796  -1.4754  -1.4568  -1.4561  -1.4309  -1.4296  -1.4270
    -1.4263  -1.4216  -1.4145  -1.3991  -1.3942  -1.3836  -1.3747  -1.3610
    -1.3605  -1.3464  -1.3387  -1.3161  -1.3155  -1.3081  -1.3018  -1.2719
    -1.2700  -1.2631  -1.2607  -1.2549  -1.2492  -1.2331  -1.2324  -1.2212
    -1.2139  -1.2124  -1.2016  -1.2006  -1.1999  -1.1926  -1.1859  -1.1751
    -1.1742  -1.1668  -1.1667  -1.1541  -1.1503  -1.1439  -1.1421  -1.1041
    -1.1011  -1.0958  -1.0947  -1.0942  -1.0901  -1.0551  -1.0382  -1.0377
    -1.0370  -1.0349  -1.0330  -1.0275  -1.0267  -1.0122  -1.0091  -0.9759
    -0.9722  -0.9684  -0.9672  -0.9456  -0.9452  -0.9356  -0.9061  -0.8982
    -0.8709  -0.8703  -0.8429  -0.8427  -0.8395  -0.8387  -0.8376  -0.8334
    -0.8285  -0.8267  -0.8243  -0.8235  -0.7918  -0.7917  -0.7740  -0.7700
    -0.7685  -0.7677  -0.7663  -0.7574  -0.7475  -0.4721  -0.4613  -0.4060
    -0.3959  -0.3658  -0.2060  -0.1406  -0.1400  -0.1044   0.1785   0.1811
     0.5082   0.5141   0.6074   0.6080   0.6487   0.6496   0.7917   0.7971
     0.9167   0.9188   1.0077   1.6037   1.6218   1.6230   1.6606   1.6673
     1.7089   1.7170   1.7916   1.7951   1.9991   1.9999   2.2348   2.3134
     2.3173   2.3309   2.7089   2.7157   2.7847   2.7853   2.7925   2.7931
     2.9427   2.9448   2.9862   3.0865   3.0889   3.3184   3.3210   3.4537
     3.4810   3.4829   3.7515   3.7538   3.8656   3.8845   3.8851   3.9302
     3.9608   4.0705   4.0720   4.3070   4.3094   4.3954   4.3976   4.5206
     4.5227   4.5432   4.5521   4.6710   4.9734   5.3348   5.3494   5.4434
     5.4508   5.5000   5.6310   5.6329   5.6728   5.7077   5.7445   5.7475
     5.7536   5.7982   5.8017   5.8431   6.0323   6.0745   6.0881   6.1123
     6.1271   6.1386   6.1430   6.1445   6.1539   6.1540   6.1972   6.2110

          k =-0.2500-0.2500 0.0833 (167653 PWs)   bands (ev):

   -19.5511  -7.3796  -6.8208  -6.2927  -6.2920  -5.8628  -5.4543  -5.3608
    -5.3603  -5.1647  -5.1644  -5.0475  -5.0466  -4.9682  -4.9454  -4.8722
    -4.7873  -4.7835  -4.7449  -4.7445  -4.5840  -4.5670  -4.5659  -4.5656
    -4.5587  -4.5031  -4.5030  -4.4912  -4.4909  -4.4541  -4.4419  -4.4412
    -4.3993  -4.3992  -4.3659  -4.3646  -4.3132  -4.3125  -4.3024  -4.3007
    -4.2951  -4.2821  -4.2820  -4.2413  -4.2228  -4.2226  -4.2157  -4.2154
    -4.1837  -4.1342  -4.1185  -4.1181  -4.1160  -4.1143  -4.1066  -4.1010
    -4.1009  -4.1003  -4.0367  -4.0355  -3.9860  -3.9855  -3.9734  -3.9476
    -3.9470  -3.9280  -3.9244  -3.9239  -3.9199  -3.9170  -3.8680  -3.8677
    -3.8549  -3.8546  -3.7506  -3.7494  -3.7451  -3.7431  -3.7057  -3.6982
    -3.6823  -3.6530  -3.6526  -3.6244  -3.6237  -3.6087  -3.6020  -3.5911
    -3.5884  -3.5857  -3.5333  -3.5326  -3.5142  -3.4990  -3.4879  -3.4865
    -3.4861  -3.4840  -3.4578  -3.4574  -3.4214  -3.4211  -3.3998  -3.3981
    -3.3665  -3.3650  -3.3478  -3.3201  -3.3197  -3.2827  -3.2823  -3.2467
    -3.2391  -3.2385  -3.2247  -3.2241  -3.2195  -3.2192  -3.1817  -3.1705
    -3.1303  -3.1300  -3.1218  -3.1126  -3.1119  -3.1106  -3.0862  -3.0860
    -3.0650  -3.0647  -3.0641  -3.0374  -3.0371  -3.0296  -3.0271  -3.0265
    -2.9906  -2.9870  -2.9515  -2.9508  -2.9503  -2.9475  -2.9469  -2.8676
    -2.8579  -2.8539  -2.8532  -2.8523  -2.8518  -2.8479  -2.8468  -2.8462
    -2.8460  -2.8365  -2.8287  -2.8125  -2.8097  -2.8091  -2.8082  -2.7939
    -2.7893  -2.7514  -2.7505  -2.7500  -2.7462  -2.7456  -2.7274  -2.7271
    -2.7187  -2.7186  -2.7159  -2.6570  -2.6569  -2.6513  -2.6511  -2.6472
    -2.6462  -2.6187  -2.5592  -2.5581  -2.5575  -2.5551  -2.5438  -2.5422
    -2.5381  -2.5268  -2.5259  -2.4906  -2.4890  -2.4811  -2.4804  -2.4796
    -2.4791  -2.4402  -2.4397  -2.4299  -2.4294  -2.4281  -2.4277  -2.3869
    -2.3721  -2.3650  -2.3110  -2.3105  -2.2932  -2.2913  -2.2868  -2.2854
    -2.2374  -2.2363  -2.2129  -2.1979  -2.1832  -2.1823  -2.1812  -2.1600
    -2.1592  -2.1497  -2.1369  -2.0947  -2.0926  -2.0801  -2.0777  -2.0770
    -2.0674  -2.0663  -2.0551  -2.0518  -2.0507  -2.0463  -2.0430  -2.0413
    -2.0405  -2.0294  -2.0287  -2.0121  -2.0107  -2.0089  -2.0027  -1.9995
    -1.9994  -1.9767  -1.9758  -1.9692  -1.9625  -1.9615  -1.9570  -1.9216
    -1.8889  -1.8851  -1.8494  -1.8335  -1.8324  -1.8298  -1.8213  -1.8093
    -1.7977  -1.7916  -1.7831  -1.7824  -1.7810  -1.7796  -1.7779  -1.7554
    -1.7451  -1.7448  -1.7203  -1.6990  -1.6856  -1.6597  -1.6525  -1.6117
    -1.6085  -1.5955  -1.5765  -1.5690  -1.5680  -1.5516  -1.5489  -1.5339
    -1.5326  -1.5284  -1.5280  -1.5266  -1.5262  -1.5238  -1.5170  -1.5033
    -1.5009  -1.4796  -1.4754  -1.4568  -1.4561  -1.4309  -1.4296  -1.4270
    -1.4263  -1.4216  -1.4145  -1.3991  -1.3942  -1.3836  -1.3747  -1.3610
    -1.3605  -1.3464  -1.3387  -1.3161  -1.3155  -1.3081  -1.3018  -1.2719
    -1.2701  -1.2631  -1.2607  -1.2549  -1.2492  -1.2331  -1.2324  -1.2212
    -1.2139  -1.2124  -1.2016  -1.2006  -1.1999  -1.1926  -1.1859  -1.1751
    -1.1742  -1.1668  -1.1667  -1.1541  -1.1503  -1.1439  -1.1421  -1.1041
    -1.1011  -1.0958  -1.0947  -1.0942  -1.0901  -1.0551  -1.0382  -1.0377
    -1.0370  -1.0349  -1.0330  -1.0275  -1.0267  -1.0122  -1.0091  -0.9759
    -0.9722  -0.9684  -0.9672  -0.9456  -0.9452  -0.9356  -0.9061  -0.8982
    -0.8709  -0.8703  -0.8429  -0.8427  -0.8395  -0.8387  -0.8376  -0.8334
    -0.8285  -0.8267  -0.8243  -0.8235  -0.7918  -0.7917  -0.7740  -0.7700
    -0.7685  -0.7677  -0.7664  -0.7574  -0.7476  -0.4721  -0.4613  -0.4060
    -0.3959  -0.3658  -0.2060  -0.1406  -0.1400  -0.1044   0.1785   0.1811
     0.5082   0.5141   0.6074   0.6080   0.6487   0.6495   0.7917   0.7971
     0.9167   0.9188   1.0077   1.6037   1.6218   1.6230   1.6606   1.6673
     1.7089   1.7170   1.7916   1.7951   1.9991   1.9999   2.2348   2.3134
     2.3173   2.3309   2.7089   2.7157   2.7847   2.7853   2.7925   2.7931
     2.9427   2.9448   2.9861   3.0865   3.0889   3.3184   3.3209   3.4537
     3.4810   3.4829   3.7515   3.7538   3.8656   3.8845   3.8851   3.9301
     3.9607   4.0705   4.0720   4.3070   4.3094   4.3954   4.3976   4.5206
     4.5227   4.5432   4.5521   4.6710   4.9777   5.3358   5.3539   5.4455
     5.4513   5.5067   5.6300   5.6327   5.6543   5.7008   5.7261   5.7476
     5.7511   5.7984   5.8017   5.8434   6.0099   6.0664   6.1042   6.1119
     6.1282   6.1326   6.1422   6.1431   6.1538   6.1542   6.1664   6.2090

          k =-0.2500 0.2500-0.0833 (167653 PWs)   bands (ev):

   -19.5511  -7.3796  -6.8208  -6.2931  -6.2917  -5.8628  -5.4543  -5.3612
    -5.3599  -5.1647  -5.1644  -5.0480  -5.0461  -4.9681  -4.9454  -4.8722
    -4.7874  -4.7835  -4.7449  -4.7444  -4.5841  -4.5671  -4.5662  -4.5652
    -4.5587  -4.5032  -4.5029  -4.4916  -4.4906  -4.4540  -4.4423  -4.4409
    -4.3994  -4.3991  -4.3658  -4.3646  -4.3135  -4.3120  -4.3025  -4.3006
    -4.2952  -4.2820  -4.2820  -4.2414  -4.2229  -4.2225  -4.2158  -4.2151
    -4.1839  -4.1344  -4.1188  -4.1178  -4.1156  -4.1144  -4.1066  -4.1011
    -4.1009  -4.1003  -4.0369  -4.0350  -3.9864  -3.9852  -3.9734  -3.9475
    -3.9470  -3.9278  -3.9243  -3.9240  -3.9202  -3.9170  -3.8681  -3.8677
    -3.8553  -3.8543  -3.7507  -3.7491  -3.7444  -3.7430  -3.7057  -3.6982
    -3.6823  -3.6533  -3.6528  -3.6245  -3.6233  -3.6062  -3.6021  -3.5962
    -3.5879  -3.5862  -3.5335  -3.5327  -3.5120  -3.4990  -3.4871  -3.4865
    -3.4859  -3.4844  -3.4583  -3.4574  -3.4213  -3.4208  -3.4000  -3.3982
    -3.3666  -3.3650  -3.3478  -3.3198  -3.3196  -3.2828  -3.2822  -3.2469
    -3.2391  -3.2385  -3.2251  -3.2240  -3.2195  -3.2191  -3.1817  -3.1706
    -3.1303  -3.1300  -3.1218  -3.1128  -3.1117  -3.1106  -3.0863  -3.0860
    -3.0653  -3.0647  -3.0637  -3.0373  -3.0371  -3.0296  -3.0270  -3.0265
    -2.9905  -2.9868  -2.9520  -2.9506  -2.9503  -2.9475  -2.9468  -2.8677
    -2.8579  -2.8541  -2.8529  -2.8524  -2.8515  -2.8479  -2.8469  -2.8463
    -2.8459  -2.8365  -2.8287  -2.8125  -2.8099  -2.8091  -2.8081  -2.7937
    -2.7892  -2.7515  -2.7503  -2.7501  -2.7465  -2.7453  -2.7277  -2.7269
    -2.7189  -2.7184  -2.7159  -2.6571  -2.6567  -2.6513  -2.6510  -2.6471
    -2.6462  -2.6186  -2.5594  -2.5580  -2.5575  -2.5551  -2.5439  -2.5422
    -2.5382  -2.5268  -2.5257  -2.4909  -2.4887  -2.4816  -2.4806  -2.4795
    -2.4788  -2.4406  -2.4395  -2.4300  -2.4294  -2.4284  -2.4275  -2.3869
    -2.3720  -2.3651  -2.3111  -2.3103  -2.2931  -2.2913  -2.2869  -2.2855
    -2.2379  -2.2358  -2.2130  -2.1978  -2.1832  -2.1824  -2.1812  -2.1600
    -2.1591  -2.1497  -2.1368  -2.0944  -2.0925  -2.0799  -2.0782  -2.0766
    -2.0675  -2.0661  -2.0552  -2.0514  -2.0506  -2.0464  -2.0432  -2.0413
    -2.0400  -2.0295  -2.0287  -2.0119  -2.0105  -2.0090  -2.0026  -1.9999
    -1.9990  -1.9773  -1.9756  -1.9690  -1.9625  -1.9613  -1.9573  -1.9216
    -1.8887  -1.8854  -1.8494  -1.8335  -1.8323  -1.8267  -1.8225  -1.8097
    -1.7980  -1.7886  -1.7850  -1.7820  -1.7811  -1.7798  -1.7784  -1.7563
    -1.7452  -1.7448  -1.7214  -1.6992  -1.6854  -1.6593  -1.6532  -1.6118
    -1.6082  -1.5958  -1.5766  -1.5689  -1.5679  -1.5514  -1.5491  -1.5336
    -1.5319  -1.5289  -1.5281  -1.5266  -1.5262  -1.5238  -1.5172  -1.5035
    -1.5010  -1.4792  -1.4754  -1.4572  -1.4565  -1.4304  -1.4300  -1.4273
    -1.4262  -1.4210  -1.4145  -1.3996  -1.3932  -1.3843  -1.3749  -1.3609
    -1.3605  -1.3465  -1.3388  -1.3168  -1.3151  -1.3080  -1.3017  -1.2718
    -1.2690  -1.2634  -1.2605  -1.2552  -1.2493  -1.2331  -1.2323  -1.2214
    -1.2141  -1.2124  -1.2016  -1.2006  -1.2002  -1.1930  -1.1861  -1.1748
    -1.1742  -1.1670  -1.1665  -1.1540  -1.1507  -1.1439  -1.1425  -1.1043
    -1.1004  -1.0954  -1.0947  -1.0942  -1.0904  -1.0552  -1.0391  -1.0373
    -1.0369  -1.0351  -1.0339  -1.0275  -1.0257  -1.0123  -1.0087  -0.9763
    -0.9720  -0.9685  -0.9671  -0.9457  -0.9450  -0.9356  -0.9063  -0.8984
    -0.8714  -0.8698  -0.8430  -0.8425  -0.8395  -0.8387  -0.8376  -0.8333
    -0.8285  -0.8268  -0.8245  -0.8232  -0.7921  -0.7913  -0.7753  -0.7703
    -0.7680  -0.7674  -0.7665  -0.7564  -0.7476  -0.4721  -0.4613  -0.4080
    -0.3936  -0.3658  -0.2056  -0.1408  -0.1396  -0.1050   0.1777   0.1819
     0.5061   0.5159   0.6073   0.6083   0.6475   0.6512   0.7903   0.7986
     0.9166   0.9186   1.0080   1.6035   1.6220   1.6228   1.6582   1.6673
     1.7038   1.7234   1.7909   1.7965   1.9983   2.0006   2.2339   2.3103
     2.3199   2.3308   2.7030   2.7197   2.7841   2.7865   2.7918   2.7938
     2.9438   2.9439   2.9845   3.0863   3.0938   3.3179   3.3252   3.4532
     3.4797   3.4835   3.7498   3.7565   3.8623   3.8845   3.8853   3.9240
     3.9679   4.0691   4.0734   4.3082   4.3089   4.3906   4.4008   4.5160
     4.5242   4.5372   4.5552   4.6717   4.9788   5.3261   5.3600   5.4475
     5.4537   5.5127   5.6310   5.6357   5.6495   5.7017   5.7186   5.7442
     5.7535   5.8010   5.8017   5.8459   6.0043   6.0720   6.1046   6.1153
     6.1276   6.1292   6.1381   6.1458   6.1490   6.1540   6.1757   6.2068

          k = 0.2500-0.2500-0.0833 (167653 PWs)   bands (ev):

   -19.5511  -7.3796  -6.8208  -6.2931  -6.2917  -5.8628  -5.4543  -5.3612
    -5.3599  -5.1647  -5.1644  -5.0480  -5.0461  -4.9681  -4.9454  -4.8722
    -4.7874  -4.7835  -4.7449  -4.7444  -4.5841  -4.5671  -4.5662  -4.5652
    -4.5587  -4.5032  -4.5029  -4.4916  -4.4906  -4.4540  -4.4423  -4.4409
    -4.3994  -4.3991  -4.3658  -4.3646  -4.3135  -4.3120  -4.3025  -4.3006
    -4.2952  -4.2820  -4.2820  -4.2414  -4.2229  -4.2225  -4.2158  -4.2151
    -4.1839  -4.1344  -4.1188  -4.1178  -4.1156  -4.1144  -4.1066  -4.1011
    -4.1009  -4.1003  -4.0369  -4.0350  -3.9864  -3.9852  -3.9734  -3.9475
    -3.9470  -3.9278  -3.9243  -3.9240  -3.9202  -3.9170  -3.8681  -3.8677
    -3.8553  -3.8543  -3.7507  -3.7491  -3.7444  -3.7430  -3.7057  -3.6982
    -3.6823  -3.6533  -3.6528  -3.6245  -3.6233  -3.6062  -3.6021  -3.5962
    -3.5879  -3.5862  -3.5335  -3.5327  -3.5120  -3.4990  -3.4871  -3.4865
    -3.4859  -3.4844  -3.4583  -3.4574  -3.4213  -3.4208  -3.4000  -3.3982
    -3.3666  -3.3650  -3.3478  -3.3198  -3.3196  -3.2828  -3.2822  -3.2469
    -3.2391  -3.2385  -3.2251  -3.2240  -3.2195  -3.2191  -3.1817  -3.1706
    -3.1303  -3.1300  -3.1218  -3.1128  -3.1117  -3.1106  -3.0863  -3.0860
    -3.0653  -3.0647  -3.0637  -3.0373  -3.0371  -3.0296  -3.0270  -3.0265
    -2.9905  -2.9868  -2.9520  -2.9506  -2.9503  -2.9475  -2.9468  -2.8677
    -2.8579  -2.8541  -2.8529  -2.8524  -2.8515  -2.8479  -2.8469  -2.8463
    -2.8459  -2.8365  -2.8287  -2.8125  -2.8099  -2.8091  -2.8081  -2.7937
    -2.7892  -2.7515  -2.7503  -2.7501  -2.7465  -2.7453  -2.7277  -2.7269
    -2.7189  -2.7184  -2.7159  -2.6571  -2.6567  -2.6513  -2.6510  -2.6471
    -2.6462  -2.6186  -2.5594  -2.5580  -2.5575  -2.5551  -2.5439  -2.5422
    -2.5382  -2.5268  -2.5257  -2.4909  -2.4887  -2.4816  -2.4806  -2.4795
    -2.4788  -2.4406  -2.4395  -2.4300  -2.4294  -2.4284  -2.4275  -2.3869
    -2.3720  -2.3651  -2.3111  -2.3103  -2.2931  -2.2913  -2.2869  -2.2855
    -2.2379  -2.2358  -2.2130  -2.1978  -2.1832  -2.1824  -2.1812  -2.1600
    -2.1591  -2.1497  -2.1368  -2.0944  -2.0925  -2.0799  -2.0782  -2.0766
    -2.0675  -2.0661  -2.0552  -2.0514  -2.0506  -2.0464  -2.0432  -2.0413
    -2.0400  -2.0295  -2.0287  -2.0119  -2.0105  -2.0090  -2.0026  -1.9999
    -1.9990  -1.9773  -1.9756  -1.9690  -1.9625  -1.9613  -1.9573  -1.9216
    -1.8887  -1.8854  -1.8494  -1.8335  -1.8323  -1.8267  -1.8225  -1.8097
    -1.7980  -1.7886  -1.7850  -1.7820  -1.7811  -1.7798  -1.7784  -1.7563
    -1.7452  -1.7448  -1.7214  -1.6992  -1.6854  -1.6593  -1.6532  -1.6118
    -1.6082  -1.5958  -1.5766  -1.5689  -1.5679  -1.5514  -1.5491  -1.5336
    -1.5319  -1.5289  -1.5281  -1.5266  -1.5262  -1.5238  -1.5172  -1.5035
    -1.5010  -1.4792  -1.4754  -1.4572  -1.4565  -1.4304  -1.4300  -1.4273
    -1.4262  -1.4210  -1.4145  -1.3996  -1.3932  -1.3843  -1.3749  -1.3609
    -1.3605  -1.3465  -1.3388  -1.3168  -1.3151  -1.3080  -1.3017  -1.2718
    -1.2690  -1.2634  -1.2605  -1.2552  -1.2493  -1.2331  -1.2323  -1.2214
    -1.2141  -1.2124  -1.2016  -1.2006  -1.2002  -1.1930  -1.1861  -1.1748
    -1.1742  -1.1670  -1.1665  -1.1540  -1.1507  -1.1439  -1.1425  -1.1043
    -1.1004  -1.0954  -1.0947  -1.0942  -1.0904  -1.0552  -1.0391  -1.0373
    -1.0369  -1.0351  -1.0339  -1.0275  -1.0257  -1.0123  -1.0087  -0.9763
    -0.9720  -0.9685  -0.9671  -0.9457  -0.9450  -0.9356  -0.9063  -0.8984
    -0.8714  -0.8698  -0.8430  -0.8425  -0.8395  -0.8387  -0.8376  -0.8333
    -0.8285  -0.8268  -0.8245  -0.8232  -0.7921  -0.7913  -0.7753  -0.7703
    -0.7680  -0.7674  -0.7665  -0.7564  -0.7476  -0.4721  -0.4613  -0.4080
    -0.3936  -0.3658  -0.2056  -0.1408  -0.1396  -0.1050   0.1777   0.1819
     0.5061   0.5159   0.6073   0.6083   0.6475   0.6512   0.7903   0.7986
     0.9166   0.9186   1.0080   1.6035   1.6220   1.6228   1.6582   1.6673
     1.7038   1.7234   1.7909   1.7965   1.9983   2.0006   2.2339   2.3103
     2.3199   2.3308   2.7030   2.7197   2.7841   2.7865   2.7918   2.7938
     2.9438   2.9439   2.9845   3.0863   3.0938   3.3179   3.3252   3.4532
     3.4797   3.4835   3.7498   3.7565   3.8623   3.8845   3.8853   3.9240
     3.9679   4.0691   4.0734   4.3082   4.3089   4.3906   4.4008   4.5160
     4.5242   4.5372   4.5552   4.6717   4.9789   5.3264   5.3595   5.4472
     5.4537   5.5122   5.6313   5.6357   5.6528   5.7009   5.7173   5.7437
     5.7534   5.8010   5.8017   5.8459   6.0043   6.0663   6.1044   6.1160
     6.1273   6.1304   6.1382   6.1458   6.1489   6.1540   6.1804   6.2149

          k =-0.2500 0.2500 0.2500 (167588 PWs)   bands (ev):

   -19.5511  -7.3796  -6.8208  -6.2931  -6.2917  -5.8628  -5.4543  -5.3612
    -5.3599  -5.1647  -5.1644  -5.0480  -5.0461  -4.9681  -4.9454  -4.8722
    -4.7874  -4.7835  -4.7449  -4.7444  -4.5841  -4.5671  -4.5662  -4.5652
    -4.5587  -4.5032  -4.5029  -4.4916  -4.4906  -4.4540  -4.4423  -4.4409
    -4.3994  -4.3991  -4.3658  -4.3646  -4.3135  -4.3120  -4.3025  -4.3006
    -4.2952  -4.2820  -4.2820  -4.2414  -4.2229  -4.2225  -4.2158  -4.2151
    -4.1839  -4.1344  -4.1188  -4.1178  -4.1156  -4.1144  -4.1066  -4.1011
    -4.1009  -4.1003  -4.0369  -4.0350  -3.9864  -3.9852  -3.9734  -3.9475
    -3.9470  -3.9278  -3.9243  -3.9240  -3.9202  -3.9170  -3.8681  -3.8677
    -3.8553  -3.8543  -3.7507  -3.7491  -3.7444  -3.7430  -3.7057  -3.6982
    -3.6823  -3.6533  -3.6528  -3.6245  -3.6233  -3.6062  -3.6021  -3.5962
    -3.5879  -3.5862  -3.5335  -3.5327  -3.5120  -3.4990  -3.4871  -3.4865
    -3.4859  -3.4844  -3.4583  -3.4574  -3.4213  -3.4208  -3.4000  -3.3982
    -3.3666  -3.3650  -3.3478  -3.3198  -3.3196  -3.2828  -3.2822  -3.2469
    -3.2391  -3.2385  -3.2251  -3.2240  -3.2195  -3.2191  -3.1817  -3.1706
    -3.1303  -3.1300  -3.1218  -3.1128  -3.1117  -3.1106  -3.0863  -3.0860
    -3.0653  -3.0647  -3.0637  -3.0373  -3.0371  -3.0296  -3.0270  -3.0265
    -2.9905  -2.9868  -2.9521  -2.9506  -2.9503  -2.9475  -2.9468  -2.8677
    -2.8579  -2.8541  -2.8529  -2.8524  -2.8515  -2.8479  -2.8469  -2.8463
    -2.8458  -2.8365  -2.8287  -2.8126  -2.8099  -2.8091  -2.8081  -2.7937
    -2.7892  -2.7515  -2.7503  -2.7501  -2.7465  -2.7453  -2.7277  -2.7269
    -2.7189  -2.7184  -2.7159  -2.6571  -2.6567  -2.6513  -2.6510  -2.6471
    -2.6462  -2.6186  -2.5594  -2.5580  -2.5575  -2.5551  -2.5439  -2.5422
    -2.5382  -2.5268  -2.5257  -2.4909  -2.4887  -2.4816  -2.4806  -2.4795
    -2.4788  -2.4406  -2.4395  -2.4300  -2.4294  -2.4284  -2.4275  -2.3869
    -2.3720  -2.3651  -2.3111  -2.3103  -2.2931  -2.2913  -2.2869  -2.2855
    -2.2379  -2.2358  -2.2130  -2.1978  -2.1832  -2.1824  -2.1812  -2.1599
    -2.1591  -2.1497  -2.1368  -2.0944  -2.0925  -2.0799  -2.0782  -2.0766
    -2.0675  -2.0661  -2.0552  -2.0514  -2.0506  -2.0464  -2.0432  -2.0413
    -2.0400  -2.0295  -2.0287  -2.0119  -2.0105  -2.0090  -2.0026  -1.9999
    -1.9990  -1.9773  -1.9756  -1.9689  -1.9625  -1.9613  -1.9573  -1.9216
    -1.8887  -1.8854  -1.8494  -1.8335  -1.8323  -1.8267  -1.8224  -1.8097
    -1.7980  -1.7886  -1.7850  -1.7820  -1.7811  -1.7798  -1.7784  -1.7563
    -1.7452  -1.7448  -1.7214  -1.6992  -1.6854  -1.6593  -1.6532  -1.6118
    -1.6082  -1.5958  -1.5766  -1.5689  -1.5679  -1.5514  -1.5491  -1.5336
    -1.5319  -1.5289  -1.5281  -1.5266  -1.5262  -1.5238  -1.5172  -1.5035
    -1.5010  -1.4792  -1.4754  -1.4572  -1.4565  -1.4304  -1.4300  -1.4273
    -1.4262  -1.4210  -1.4145  -1.3996  -1.3932  -1.3843  -1.3749  -1.3609
    -1.3605  -1.3465  -1.3388  -1.3168  -1.3151  -1.3080  -1.3017  -1.2718
    -1.2690  -1.2634  -1.2605  -1.2552  -1.2493  -1.2331  -1.2323  -1.2214
    -1.2141  -1.2124  -1.2016  -1.2006  -1.2002  -1.1929  -1.1861  -1.1748
    -1.1742  -1.1670  -1.1665  -1.1540  -1.1507  -1.1439  -1.1425  -1.1043
    -1.1004  -1.0954  -1.0947  -1.0942  -1.0904  -1.0552  -1.0390  -1.0373
    -1.0369  -1.0351  -1.0339  -1.0275  -1.0257  -1.0123  -1.0087  -0.9763
    -0.9720  -0.9685  -0.9671  -0.9457  -0.9450  -0.9356  -0.9063  -0.8984
    -0.8714  -0.8698  -0.8430  -0.8425  -0.8395  -0.8387  -0.8376  -0.8333
    -0.8285  -0.8268  -0.8245  -0.8232  -0.7921  -0.7913  -0.7753  -0.7703
    -0.7680  -0.7674  -0.7664  -0.7564  -0.7476  -0.4721  -0.4613  -0.4079
    -0.3936  -0.3658  -0.2056  -0.1408  -0.1396  -0.1050   0.1777   0.1819
     0.5061   0.5159   0.6073   0.6083   0.6475   0.6512   0.7903   0.7986
     0.9166   0.9186   1.0080   1.6035   1.6220   1.6228   1.6582   1.6673
     1.7038   1.7234   1.7909   1.7965   1.9983   2.0006   2.2339   2.3103
     2.3199   2.3308   2.7030   2.7197   2.7841   2.7865   2.7918   2.7938
     2.9438   2.9439   2.9845   3.0863   3.0938   3.3179   3.3252   3.4532
     3.4797   3.4835   3.7498   3.7565   3.8623   3.8845   3.8853   3.9241
     3.9680   4.0691   4.0734   4.3082   4.3089   4.3905   4.4008   4.5160
     4.5242   4.5372   4.5552   4.6717   4.9744   5.3246   5.3566   5.4461
     5.4523   5.5041   5.6313   5.6357   5.6700   5.7001   5.7400   5.7485
     5.7599   5.8010   5.8018   5.8459   6.0277   6.0646   6.0992   6.1128
     6.1241   6.1377   6.1456   6.1477   6.1522   6.1545   6.1896   6.2256

     the Fermi energy is     0.8678 ev

!    total energy              =   -7425.29472746 Ry
     Harris-Foulkes estimate   =   -7425.29472746 Ry
     estimated scf accuracy    <          4.8E-09 Ry

     The total energy is the sum of the following terms:

     one-electron contribution =  -48698.88546632 Ry
     hartree contribution      =   24900.29388808 Ry
     xc contribution           =   -3604.21112416 Ry
     ewald contribution        =   19977.51072885 Ry
     smearing contrib. (-TS)   =      -0.00275392 Ry

     convergence has been achieved in  26 iterations

     Writing output data file 1271710.save

     init_run     :    116.55s CPU    127.38s WALL (       1 calls)
     electrons    :   7234.82s CPU   7735.73s WALL (       1 calls)

     Called by init_run:
     wfcinit      :     84.88s CPU     94.71s WALL (       1 calls)
     potinit      :      7.17s CPU      7.74s WALL (       1 calls)

     Called by electrons:
     c_bands      :   5835.54s CPU   6229.92s WALL (      27 calls)
     sum_band     :    855.86s CPU    934.34s WALL (      27 calls)
     v_of_rho     :    122.79s CPU    137.42s WALL (      27 calls)
     newd         :    432.95s CPU    445.58s WALL (      27 calls)
     mix_rho      :      3.64s CPU      4.12s WALL (      27 calls)
     vdW_energy   :      9.53s CPU     10.72s WALL (      27 calls)
     vdW_ffts     :     61.68s CPU     69.29s WALL (      54 calls)
     vdW_v        :     16.69s CPU     17.78s WALL (      27 calls)

     Called by c_bands:
     init_us_2    :     15.36s CPU     16.79s WALL (     330 calls)
     cegterg      :   5756.03s CPU   6145.19s WALL (     162 calls)

     Called by *egterg:
     h_psi        :   2367.56s CPU   2711.19s WALL (     849 calls)
     s_psi        :    363.94s CPU    368.74s WALL (     849 calls)
     g_psi        :      4.63s CPU      4.75s WALL (     681 calls)
     cdiaghg      :   1579.05s CPU   1587.89s WALL (     837 calls)

     Called by h_psi:
     add_vuspsi   :    367.82s CPU    373.25s WALL (     849 calls)

     General routines
     calbec       :    616.27s CPU    621.65s WALL (    1011 calls)
     fft          :    163.82s CPU    179.14s WALL (    1782 calls)
     ffts         :      1.88s CPU      2.39s WALL (      54 calls)
     fftw         :   1613.43s CPU   1964.37s WALL (  446896 calls)
     interpolate  :      5.02s CPU      6.12s WALL (      54 calls)
     davcio       :      0.00s CPU      0.25s WALL (       6 calls)

     Parallel routines
     fft_scatter  :   1201.32s CPU   1473.56s WALL (  448732 calls)

     PWSCF        :     2h 2m CPU        2h11m WALL


   This run was terminated on:  22:17:20  29Aug2015            

=------------------------------------------------------------------------------=
   JOB DONE.
=------------------------------------------------------------------------------=
