Setting SGE environment for SCC

     Program PWSCF v.5.1.2 starts on 23Jun2015 at 12: 5:55 

     This program is part of the open-source Quantum ESPRESSO suite
     for quantum simulation of materials; please cite
         "P. Giannozzi et al., J. Phys.:Condens. Matter 21 395502 (2009);
          URL http://www.quantum-espresso.org", 
     in publications or presentations arising from this work. More details at
     http://www.quantum-espresso.org/quote

     Parallel version (MPI), running on    32 processors
     R & G space division:  proc/nbgrp/npool/nimage =      32
     Reading input from top.O1.Au62.d.2.6.phi.0.psi.0.in
Warning: card &IONS ignored
Warning: card / ignored
Warning: card &CELL ignored
Warning: card / ignored

     Current dimensions of program PWSCF are:
     Max number of different atomic species (ntypx) = 10
     Max number of k-points (npk) =  40000
     Max angular momentum in pseudopotentials (lmaxx) =  3

     IMPORTANT: XC functional enforced from input :
     Exchange-correlation      = VDW-DF ( 1  4  4  0 1 0)
     Any further DFT definition will be discarded
     Please, verify this is what you really want


     Subspace diagonalization in iterative solution of the eigenvalue problem:
     a serial algorithm will be used


     Parallelization info
     --------------------
     sticks:   dense  smooth     PW     G-vecs:    dense   smooth      PW
     Min         578     289     74               118518    41891    5486
     Max         579     290     75               118533    41932    5497
     Sum       18505    9265   2385              3792731  1341081  175711


     Title: 
     top.O1.Au62.d.2.6.phi.0.psi.0                                              


     bravais-lattice index     =            8
     lattice parameter (alat)  =      24.1233  a.u.
     unit-cell volume          =   28076.2361 (a.u.)^3
     number of atoms/cell      =           75
     number of atomic types    =            3
     number of electrons       =       800.00
     number of Kohn-Sham states=          480
     kinetic-energy cutoff     =      50.0000  Ry
     charge density cutoff     =     400.0000  Ry
     convergence threshold     =      1.0E-08
     mixing beta               =       0.7000
     number of iterations used =            8  plain     mixing
     Exchange-correlation      = VDW-DF ( 1  4  4  0 1 0)

     celldm(1)=  24.123277  celldm(2)=   1.000000  celldm(3)=   2.000000
     celldm(4)=   0.000000  celldm(5)=   0.000000  celldm(6)=   0.000000

     crystal axes: (cart. coord. in units of alat)
               a(1) = (   1.000000   0.000000   0.000000 )  
               a(2) = (   0.000000   1.000000   0.000000 )  
               a(3) = (   0.000000   0.000000   2.000000 )  

     reciprocal axes: (cart. coord. in units 2 pi/alat)
               b(1) = (  1.000000  0.000000  0.000000 )  
               b(2) = (  0.000000  1.000000  0.000000 )  
               b(3) = (  0.000000  0.000000  0.500000 )  


     PseudoPot. # 1 for Au read from file:
     /home/scc/andrejb/qe/pseudo/Au.pbe-nd-van.UPF
     MD5 check sum: 458681b50f36d87ef23c61b04bba420a
     Pseudo is Ultrasoft + core correction, Zval = 11.0
     Generated by new atomic code, or converted to UPF format
     Using radial grid of  985 points,  3 beta functions with: 
                l(1) =   1
                l(2) =   2
                l(3) =   2
     Q(r) pseudized with  8 coefficients,  rinner =    1.100   1.100   1.100
                                                       1.100   1.100

     PseudoPot. # 2 for H  read from file:
     /home/scc/andrejb/qe/pseudo/H.pbe-van_ak.UPF
     MD5 check sum: 403db7282739603aa925980fa9b8608d
     Pseudo is Ultrasoft, Zval =  1.0
     Generated by new atomic code, or converted to UPF format
     Using radial grid of  615 points,  1 beta functions with: 
                l(1) =   0
     Q(r) pseudized with  8 coefficients,  rinner =    0.800

     PseudoPot. # 3 for O  read from file:
     /home/scc/andrejb/qe/pseudo/O.pbe-van_ak.UPF
     MD5 check sum: 4b8c549914a63cae506c6ff22b5af4fe
     Pseudo is Ultrasoft, Zval =  6.0
     Generated by new atomic code, or converted to UPF format
     Using radial grid of  737 points,  4 beta functions with: 
                l(1) =   0
                l(2) =   0
                l(3) =   1
                l(4) =   1
     Q(r) pseudized with  8 coefficients,  rinner =    0.800   0.800   0.800


     vdW kernel table read from file vdW_kernel_table
     MD5 check sum: 48e77a2e26edf626eeb0eaa751ad5cac

     atomic species   valence    mass     pseudopotential
        Au            11.00   196.96657     Au( 1.00)
        H              1.00     1.01000     H ( 1.00)
        O              6.00    16.00000     O ( 1.00)

     No symmetry found



   Cartesian axes

     site n.     atom                  positions (alat units)
         1           O   tau(   1) = (   0.4998324   0.3332216   0.7029927  )
         2           H   tau(   2) = (   0.4527548   0.2940501   0.7484866  )
         3           H   tau(   3) = (   0.5454827   0.3712232   0.7508503  )
         4           Au  tau(   4) = (   0.0000000   0.0000000   0.0000000  )
         5           Au  tau(   5) = (   0.3332217   0.0000000   0.0000000  )
         6           Au  tau(   6) = (   0.6664435   0.0000000   0.0000000  )
         7           Au  tau(   7) = (   0.1666109   0.1666109   0.0000000  )
         8           Au  tau(   8) = (   0.4998326   0.1666109   0.0000000  )
         9           Au  tau(   9) = (   0.8330542   0.1666109   0.0000000  )
        10           Au  tau(  10) = (   0.0000000   0.3332217   0.0000000  )
        11           Au  tau(  11) = (   0.3332217   0.3332217   0.0000000  )
        12           Au  tau(  12) = (   0.6664435   0.3332217   0.0000000  )
        13           Au  tau(  13) = (   0.1666109   0.4998326   0.0000000  )
        14           Au  tau(  14) = (   0.4998326   0.4998326   0.0000000  )
        15           Au  tau(  15) = (   0.8330542   0.4998326   0.0000000  )
        16           Au  tau(  16) = (   0.0000000   0.6664435   0.0000000  )
        17           Au  tau(  17) = (   0.3332217   0.6664435   0.0000000  )
        18           Au  tau(  18) = (   0.6664435   0.6664435   0.0000000  )
        19           Au  tau(  19) = (   0.1666109   0.8330542   0.0000000  )
        20           Au  tau(  20) = (   0.4998326   0.8330542   0.0000000  )
        21           Au  tau(  21) = (   0.8330542   0.8330542   0.0000000  )
        22           Au  tau(  22) = (   0.1666109   0.0000000   0.1666109  )
        23           Au  tau(  23) = (   0.4998326   0.0000000   0.1666109  )
        24           Au  tau(  24) = (   0.8330542   0.0000000   0.1666109  )
        25           Au  tau(  25) = (   0.0000000   0.1666109   0.1666109  )
        26           Au  tau(  26) = (   0.3332217   0.1666109   0.1666109  )
        27           Au  tau(  27) = (   0.6664435   0.1666109   0.1666109  )
        28           Au  tau(  28) = (   0.1666109   0.3332217   0.1666109  )
        29           Au  tau(  29) = (   0.4998326   0.3332217   0.1666109  )
        30           Au  tau(  30) = (   0.8330542   0.3332217   0.1666109  )
        31           Au  tau(  31) = (   0.0000000   0.4998326   0.1666109  )
        32           Au  tau(  32) = (   0.3332217   0.4998326   0.1666109  )
        33           Au  tau(  33) = (   0.6664435   0.4998326   0.1666109  )
        34           Au  tau(  34) = (   0.1666109   0.6664435   0.1666109  )
        35           Au  tau(  35) = (   0.4998326   0.6664435   0.1666109  )
        36           Au  tau(  36) = (   0.8330542   0.6664435   0.1666109  )
        37           Au  tau(  37) = (   0.0000000   0.8330542   0.1666109  )
        38           Au  tau(  38) = (   0.3332217   0.8330542   0.1666109  )
        39           Au  tau(  39) = (   0.6664435   0.8330542   0.1666109  )
        40           Au  tau(  40) = (  -0.0000182  -0.0000182   0.3335478  )
        41           Au  tau(  41) = (   0.3332215  -0.0000181   0.3335472  )
        42           Au  tau(  42) = (   0.6664447  -0.0000183   0.3335481  )
        43           Au  tau(  43) = (  -0.0000181   0.3332215   0.3335472  )
        44           Au  tau(  44) = (   0.3332215   0.3332215   0.3335468  )
        45           Au  tau(  45) = (   0.6664445   0.3332215   0.3335478  )
        46           Au  tau(  46) = (  -0.0000183   0.6664447   0.3335481  )
        47           Au  tau(  47) = (   0.3332215   0.6664445   0.3335478  )
        48           Au  tau(  48) = (   0.6664446   0.6664446   0.3335486  )
        49           Au  tau(  49) = (   0.1666097   0.1666097   0.3335483  )
        50           Au  tau(  50) = (   0.4998320   0.1666098   0.3335477  )
        51           Au  tau(  51) = (   0.8330732   0.1666096   0.3335481  )
        52           Au  tau(  52) = (   0.1666098   0.4998320   0.3335477  )
        53           Au  tau(  53) = (   0.4998321   0.4998321   0.3335470  )
        54           Au  tau(  54) = (   0.8330730   0.4998322   0.3335474  )
        55           Au  tau(  55) = (   0.1666096   0.8330732   0.3335481  )
        56           Au  tau(  56) = (   0.4998322   0.8330730   0.3335474  )
        57           Au  tau(  57) = (   0.8330731   0.8330731   0.3335478  )
        58           Au  tau(  58) = (   0.1666104  -0.0000111   0.4993095  )
        59           Au  tau(  59) = (   0.4998323  -0.0000112   0.4993099  )
        60           Au  tau(  60) = (   0.8330661  -0.0000111   0.4993009  )
        61           Au  tau(  61) = (  -0.0000111   0.1666104   0.4993095  )
        62           Au  tau(  62) = (   0.3332214   0.1666106   0.4993185  )
        63           Au  tau(  63) = (   0.6664437   0.1666106   0.4993187  )
        64           Au  tau(  64) = (   0.1666106   0.3332214   0.4993185  )
        65           Au  tau(  65) = (   0.4998324   0.3332216   0.4993185  )
        66           Au  tau(  66) = (   0.8330659   0.3332215   0.4993103  )
        67           Au  tau(  67) = (  -0.0000112   0.4998323   0.4993099  )
        68           Au  tau(  68) = (   0.3332216   0.4998324   0.4993185  )
        69           Au  tau(  69) = (   0.6664436   0.4998325   0.4993187  )
        70           Au  tau(  70) = (   0.1666106   0.6664437   0.4993187  )
        71           Au  tau(  71) = (   0.4998325   0.6664436   0.4993187  )
        72           Au  tau(  72) = (   0.8330658   0.6664438   0.4993102  )
        73           Au  tau(  73) = (  -0.0000111   0.8330661   0.4993009  )
        74           Au  tau(  74) = (   0.3332215   0.8330659   0.4993103  )
        75           Au  tau(  75) = (   0.6664438   0.8330658   0.4993102  )

     number of k points=     6  Marzari-Vanderbilt smearing, width (Ry)=  0.0200
                       cart. coord. in units 2pi/alat
        k(    1) = (   0.2500000   0.2500000   0.0833333), wk =   0.3333333
        k(    2) = (   0.2500000   0.2500000  -0.2500000), wk =   0.3333333
        k(    3) = (  -0.2500000  -0.2500000   0.0833333), wk =   0.3333333
        k(    4) = (  -0.2500000   0.2500000  -0.0833333), wk =   0.3333333
        k(    5) = (   0.2500000  -0.2500000  -0.0833333), wk =   0.3333333
        k(    6) = (  -0.2500000   0.2500000   0.2500000), wk =   0.3333333

     Dense  grid:  3792731 G-vectors     FFT dimensions: ( 160, 160, 320)

     Smooth grid:  1341081 G-vectors     FFT dimensions: ( 120, 120, 225)

     Largest allocated arrays     est. size (Mb)     dimensions
        Kohn-Sham Wavefunctions        38.58 Mb     (    5267,  480)
        NL pseudopotentials            76.03 Mb     (    5267,  946)
        Each V/rho on FFT grid          3.91 Mb     (  256000)
        Each G-vector array             0.90 Mb     (  118520)
        G-vector shells                 0.08 Mb     (   10286)
     Largest temporary arrays     est. size (Mb)     dimensions
        Auxiliary wavefunctions       154.31 Mb     (    5267, 1920)
        Each subspace H/S matrix       56.25 Mb     (    1920, 1920)
        Each <psi_i|beta_j> matrix      6.93 Mb     (     946,  480)
        Arrays for rho mixing          31.25 Mb     (  256000,    8)

     Initial potential from superposition of free atoms
     Check: negative starting charge=   -1.945116

     starting charge  799.16392, renormalised to  800.00000

     negative rho (up, down):  1.947E+00 0.000E+00


     ************************************************************************
     *
     * You are using vdW-DF for exchange-correlation in this calculation.
     * Please cite the following three references that made this development
     * possible:
     *
     *   M. Dion, H. Rydberg, E. Schroder, D. C. Langreth, and
     *   B. I. Lundqvist, Phys. Rev. Lett. 92, 246401 (2004).
     *
     *   T. Thonhauser, V. R. Cooper, S. Li, A. Puzder, P. Hyldgaard, and
     *   D. C. Langreth, Phys. Rev. B 76, 125112 (2007).
     *
     *   G. Roman-Perez and J. M. Soler, Phys. Rev. Lett. 103, 096102 (2009).
     *
     *
     * If you are using vdW-DF2, please also cite:
     *
     *   K. Lee, E. D. Murray, L. Kong, B. I. Lundqvist, and
     *   D. C. Langreth, Phys. Rev. B 82, 081101(R) (2010).
     *
     *
     * If you are calculating the stress with vdW-DF, please also cite:
     *
     *   R. Sabatini, E. Kucukbenli, B. Kolb, T. Thonhauser, and
     *   S. de Gironcoli, J. Phys.: Condens. Matter 24, 424209 (2012).
     *
     ************************************************************************

     Carrying out vdW-DF run using the following parameters:

     Nqs =      20    Nr_points =    1024   r_max =   100.000
     q_mesh =
               0.00001000     0.04494208     0.09755937     0.15916263
               0.23128650     0.31572767     0.41458969     0.53033537
               0.66584808     0.82450364     1.01025438     1.22772762
               1.48234092     1.78043706     2.12944203     2.53805004
               3.01644009     3.57652955     4.23227104     5.00000000

     Gradients computed in reciprocal space

     ************************************************************************


     Starting wfc are  654 randomized atomic wfcs

     total cpu time spent up to now is      115.4 secs

     Self-consistent Calculation

     iteration #  1     ecut=    50.00 Ry     beta=0.70
     Davidson diagonalization with overlap
     ethr =  1.00E-02,  avg # of iterations =  3.0

     Threshold (ethr) on eigenvalues was too large:
     Diagonalizing with lowered threshold

     Davidson diagonalization with overlap
     ethr =  4.31E-04,  avg # of iterations =  2.5

     negative rho (up, down):  1.947E+00 0.000E+00

     total cpu time spent up to now is      509.9 secs

     total energy              =   -7422.98767663 Ry
     Harris-Foulkes estimate   =   -7426.09050707 Ry
     estimated scf accuracy    <       3.82820590 Ry

     iteration #  2     ecut=    50.00 Ry     beta=0.70
     Davidson diagonalization with overlap
     ethr =  4.79E-04,  avg # of iterations = 11.3

     negative rho (up, down):  1.941E+00 0.000E+00

     total cpu time spent up to now is     1214.9 secs

     total energy              =   -7414.16764167 Ry
     Harris-Foulkes estimate   =   -7432.91648257 Ry
     estimated scf accuracy    <     100.79241471 Ry

     iteration #  3     ecut=    50.00 Ry     beta=0.70
     Davidson diagonalization with overlap
     ethr =  4.79E-04,  avg # of iterations =  6.0

     negative rho (up, down):  1.951E+00 0.000E+00

     total cpu time spent up to now is     1651.2 secs

     total energy              =   -7424.35436609 Ry
     Harris-Foulkes estimate   =   -7425.88096263 Ry
     estimated scf accuracy    <       5.97962429 Ry

     iteration #  4     ecut=    50.00 Ry     beta=0.70
     Davidson diagonalization with overlap
     ethr =  4.79E-04,  avg # of iterations =  6.3

     negative rho (up, down):  1.955E+00 0.000E+00

     total cpu time spent up to now is     1926.7 secs

     total energy              =   -7424.54878932 Ry
     Harris-Foulkes estimate   =   -7425.95176363 Ry
     estimated scf accuracy    <      11.79245886 Ry

     iteration #  5     ecut=    50.00 Ry     beta=0.70
     Davidson diagonalization with overlap
     ethr =  4.79E-04,  avg # of iterations =  5.8

     negative rho (up, down):  1.963E+00 0.000E+00

     total cpu time spent up to now is     2174.8 secs

     total energy              =   -7425.24186009 Ry
     Harris-Foulkes estimate   =   -7425.39981916 Ry
     estimated scf accuracy    <       0.79522628 Ry

     iteration #  6     ecut=    50.00 Ry     beta=0.70
     Davidson diagonalization with overlap
     ethr =  9.94E-05,  avg # of iterations =  4.5

     negative rho (up, down):  1.967E+00 0.000E+00

     total cpu time spent up to now is     2397.6 secs

     total energy              =   -7425.27718808 Ry
     Harris-Foulkes estimate   =   -7425.31896560 Ry
     estimated scf accuracy    <       0.14486628 Ry

     iteration #  7     ecut=    50.00 Ry     beta=0.70
     Davidson diagonalization with overlap
     ethr =  1.81E-05,  avg # of iterations = 11.7

     negative rho (up, down):  1.969E+00 0.000E+00

     total cpu time spent up to now is     2762.2 secs

     total energy              =   -7425.27994203 Ry
     Harris-Foulkes estimate   =   -7425.30985495 Ry
     estimated scf accuracy    <       0.13173087 Ry

     iteration #  8     ecut=    50.00 Ry     beta=0.70
     Davidson diagonalization with overlap
     ethr =  1.65E-05,  avg # of iterations =  3.0

     negative rho (up, down):  1.971E+00 0.000E+00

     total cpu time spent up to now is     2968.7 secs

     total energy              =   -7425.28199075 Ry
     Harris-Foulkes estimate   =   -7425.30341471 Ry
     estimated scf accuracy    <       0.09182393 Ry

     iteration #  9     ecut=    50.00 Ry     beta=0.70
     Davidson diagonalization with overlap
     ethr =  1.15E-05,  avg # of iterations =  4.8

     negative rho (up, down):  1.972E+00 0.000E+00

     total cpu time spent up to now is     3198.1 secs

     total energy              =   -7425.28917953 Ry
     Harris-Foulkes estimate   =   -7425.29589691 Ry
     estimated scf accuracy    <       0.02251963 Ry

     iteration # 10     ecut=    50.00 Ry     beta=0.70
     Davidson diagonalization with overlap
     ethr =  2.81E-06,  avg # of iterations = 10.5

     negative rho (up, down):  1.972E+00 0.000E+00

     total cpu time spent up to now is     3517.6 secs

     total energy              =   -7425.29229046 Ry
     Harris-Foulkes estimate   =   -7425.29380047 Ry
     estimated scf accuracy    <       0.00432211 Ry

     iteration # 11     ecut=    50.00 Ry     beta=0.70
     Davidson diagonalization with overlap
     ethr =  5.40E-07,  avg # of iterations =  6.8

     negative rho (up, down):  1.973E+00 0.000E+00

     total cpu time spent up to now is     3794.2 secs

     total energy              =   -7425.29292805 Ry
     Harris-Foulkes estimate   =   -7425.29342081 Ry
     estimated scf accuracy    <       0.00132323 Ry

     iteration # 12     ecut=    50.00 Ry     beta=0.70
     Davidson diagonalization with overlap
     ethr =  1.65E-07,  avg # of iterations =  2.0

     negative rho (up, down):  1.973E+00 0.000E+00

     total cpu time spent up to now is     3993.3 secs

     total energy              =   -7425.29311405 Ry
     Harris-Foulkes estimate   =   -7425.29325898 Ry
     estimated scf accuracy    <       0.00047818 Ry

     iteration # 13     ecut=    50.00 Ry     beta=0.70
     Davidson diagonalization with overlap
     ethr =  5.98E-08,  avg # of iterations =  2.8

     negative rho (up, down):  1.974E+00 0.000E+00

     total cpu time spent up to now is     4195.8 secs

     total energy              =   -7425.29313669 Ry
     Harris-Foulkes estimate   =   -7425.29326723 Ry
     estimated scf accuracy    <       0.00065834 Ry

     iteration # 14     ecut=    50.00 Ry     beta=0.70
     Davidson diagonalization with overlap
     ethr =  5.98E-08,  avg # of iterations =  2.0

     negative rho (up, down):  1.974E+00 0.000E+00

     total cpu time spent up to now is     4395.4 secs

     total energy              =   -7425.29319052 Ry
     Harris-Foulkes estimate   =   -7425.29322054 Ry
     estimated scf accuracy    <       0.00012284 Ry

     iteration # 15     ecut=    50.00 Ry     beta=0.70
     Davidson diagonalization with overlap
     ethr =  1.54E-08,  avg # of iterations =  2.0

     negative rho (up, down):  1.974E+00 0.000E+00

     total cpu time spent up to now is     4586.0 secs

     total energy              =   -7425.29319458 Ry
     Harris-Foulkes estimate   =   -7425.29321530 Ry
     estimated scf accuracy    <       0.00008021 Ry

     iteration # 16     ecut=    50.00 Ry     beta=0.70
     Davidson diagonalization with overlap
     ethr =  1.00E-08,  avg # of iterations =  2.0

     negative rho (up, down):  1.974E+00 0.000E+00

     total cpu time spent up to now is     4776.4 secs

     total energy              =   -7425.29319219 Ry
     Harris-Foulkes estimate   =   -7425.29322411 Ry
     estimated scf accuracy    <       0.00024545 Ry

     iteration # 17     ecut=    50.00 Ry     beta=0.70
     Davidson diagonalization with overlap
     ethr =  1.00E-08,  avg # of iterations =  2.0

     negative rho (up, down):  1.974E+00 0.000E+00

     total cpu time spent up to now is     4979.5 secs

     total energy              =   -7425.29320439 Ry
     Harris-Foulkes estimate   =   -7425.29320986 Ry
     estimated scf accuracy    <       0.00002395 Ry

     iteration # 18     ecut=    50.00 Ry     beta=0.70
     Davidson diagonalization with overlap
     ethr =  2.99E-09,  avg # of iterations =  2.0

     negative rho (up, down):  1.974E+00 0.000E+00

     total cpu time spent up to now is     5192.9 secs

     total energy              =   -7425.29320644 Ry
     Harris-Foulkes estimate   =   -7425.29320798 Ry
     estimated scf accuracy    <       0.00000545 Ry

     iteration # 19     ecut=    50.00 Ry     beta=0.70
     Davidson diagonalization with overlap
     ethr =  6.82E-10,  avg # of iterations =  2.0

     negative rho (up, down):  1.974E+00 0.000E+00

     total cpu time spent up to now is     5396.0 secs

     total energy              =   -7425.29320663 Ry
     Harris-Foulkes estimate   =   -7425.29320756 Ry
     estimated scf accuracy    <       0.00000263 Ry

     iteration # 20     ecut=    50.00 Ry     beta=0.70
     Davidson diagonalization with overlap
     ethr =  3.29E-10,  avg # of iterations =  2.0

     negative rho (up, down):  1.974E+00 0.000E+00

     total cpu time spent up to now is     5587.1 secs

     total energy              =   -7425.29320668 Ry
     Harris-Foulkes estimate   =   -7425.29320708 Ry
     estimated scf accuracy    <       0.00000048 Ry

     iteration # 21     ecut=    50.00 Ry     beta=0.70
     Davidson diagonalization with overlap
     ethr =  6.03E-11,  avg # of iterations =  2.0

     negative rho (up, down):  1.974E+00 0.000E+00

     total cpu time spent up to now is     5776.0 secs

     total energy              =   -7425.29320667 Ry
     Harris-Foulkes estimate   =   -7425.29320678 Ry
     estimated scf accuracy    <       0.00000008 Ry

     iteration # 22     ecut=    50.00 Ry     beta=0.70
     Davidson diagonalization with overlap
     ethr =  9.89E-12,  avg # of iterations =  3.0

     negative rho (up, down):  1.974E+00 0.000E+00

     total cpu time spent up to now is     6065.2 secs

     total energy              =   -7425.29320660 Ry
     Harris-Foulkes estimate   =   -7425.29320670 Ry
     estimated scf accuracy    <       0.00000008 Ry

     iteration # 23     ecut=    50.00 Ry     beta=0.70
     Davidson diagonalization with overlap
     ethr =  9.67E-12,  avg # of iterations =  2.0

     negative rho (up, down):  1.974E+00 0.000E+00

     total cpu time spent up to now is     6263.6 secs

     total energy              =   -7425.29320657 Ry
     Harris-Foulkes estimate   =   -7425.29320662 Ry
     estimated scf accuracy    <       0.00000006 Ry

     iteration # 24     ecut=    50.00 Ry     beta=0.70
     Davidson diagonalization with overlap
     ethr =  6.88E-12,  avg # of iterations =  2.0

     negative rho (up, down):  1.974E+00 0.000E+00

     total cpu time spent up to now is     6451.5 secs

     total energy              =   -7425.29320654 Ry
     Harris-Foulkes estimate   =   -7425.29320658 Ry
     estimated scf accuracy    <       0.00000004 Ry

     iteration # 25     ecut=    50.00 Ry     beta=0.70
     Davidson diagonalization with overlap
     ethr =  4.81E-12,  avg # of iterations =  2.0

     negative rho (up, down):  1.974E+00 0.000E+00

     total cpu time spent up to now is     6639.7 secs

     total energy              =   -7425.29320653 Ry
     Harris-Foulkes estimate   =   -7425.29320655 Ry
     estimated scf accuracy    <       0.00000002 Ry

     iteration # 26     ecut=    50.00 Ry     beta=0.70
     Davidson diagonalization with overlap
     ethr =  2.25E-12,  avg # of iterations =  2.0

     negative rho (up, down):  1.974E+00 0.000E+00

     total cpu time spent up to now is     6828.8 secs

     total energy              =   -7425.29320653 Ry
     Harris-Foulkes estimate   =   -7425.29320653 Ry
     estimated scf accuracy    <       0.00000002 Ry

     iteration # 27     ecut=    50.00 Ry     beta=0.70
     Davidson diagonalization with overlap
     ethr =  2.25E-12,  avg # of iterations =  2.0

     negative rho (up, down):  1.974E+00 0.000E+00

     total cpu time spent up to now is     7027.8 secs

     End of self-consistent calculation

          k = 0.2500 0.2500 0.0833 (167653 PWs)   bands (ev):

   -20.3229  -8.0991  -6.6927  -6.1648  -6.1639  -5.7351  -5.3432  -5.2412
    -5.2320  -5.0750  -5.0351  -5.0192  -4.9190  -4.8715  -4.8384  -4.7996
    -4.7387  -4.6577  -4.6520  -4.6150  -4.6077  -4.4548  -4.4370  -4.4357
    -4.4336  -4.4292  -4.3737  -4.3710  -4.3623  -4.3584  -4.3243  -4.3132
    -4.3031  -4.2697  -4.2658  -4.2363  -4.2352  -4.1841  -4.1828  -4.1734
    -4.1709  -4.1655  -4.1524  -4.1504  -4.1115  -4.0930  -4.0928  -4.0865
    -4.0851  -4.0535  -4.0038  -3.9893  -3.9880  -3.9856  -3.9830  -3.9743
    -3.9717  -3.9706  -3.9684  -3.9078  -3.9063  -3.8569  -3.8513  -3.8436
    -3.8179  -3.8178  -3.7967  -3.7943  -3.7920  -3.7909  -3.7878  -3.7388
    -3.7365  -3.7258  -3.7247  -3.6211  -3.6187  -3.6146  -3.6110  -3.5752
    -3.5704  -3.5524  -3.5239  -3.5207  -3.4948  -3.4916  -3.4730  -3.4723
    -3.4598  -3.4591  -3.4040  -3.4026  -3.3899  -3.3690  -3.3613  -3.3570
    -3.3567  -3.3563  -3.3291  -3.3289  -3.2935  -3.2891  -3.2717  -3.2701
    -3.2388  -3.2365  -3.2192  -3.1933  -3.1903  -3.1534  -3.1532  -3.1172
    -3.1091  -3.1089  -3.0959  -3.0949  -3.0899  -3.0883  -3.0538  -3.0412
    -3.0019  -3.0006  -2.9919  -2.9833  -2.9820  -2.9781  -2.9572  -2.9568
    -2.9362  -2.9357  -2.9339  -2.9099  -2.9083  -2.9005  -2.8993  -2.8961
    -2.8621  -2.8581  -2.8225  -2.8222  -2.8202  -2.8187  -2.8177  -2.7379
    -2.7284  -2.7251  -2.7246  -2.7241  -2.7230  -2.7206  -2.7171  -2.7166
    -2.7162  -2.7071  -2.6991  -2.6871  -2.6839  -2.6792  -2.6749  -2.6678
    -2.6649  -2.6222  -2.6209  -2.6203  -2.6175  -2.6142  -2.5990  -2.5973
    -2.5940  -2.5898  -2.5863  -2.5505  -2.5283  -2.5268  -2.5219  -2.5212
    -2.5145  -2.4891  -2.4611  -2.4294  -2.4268  -2.4265  -2.4243  -2.4142
    -2.4055  -2.4039  -2.3979  -2.3872  -2.3611  -2.3602  -2.3520  -2.3513
    -2.3490  -2.3329  -2.3103  -2.3097  -2.3005  -2.3001  -2.2994  -2.2806
    -2.2564  -2.2380  -2.2348  -2.1817  -2.1809  -2.1656  -2.1605  -2.1558
    -2.1461  -2.1087  -2.1085  -2.0836  -2.0711  -2.0537  -2.0530  -2.0497
    -2.0311  -2.0274  -2.0206  -2.0019  -1.9659  -1.9626  -1.9530  -1.9493
    -1.9481  -1.9376  -1.9353  -1.9253  -1.9205  -1.9196  -1.9160  -1.9140
    -1.9123  -1.9112  -1.9003  -1.8997  -1.8824  -1.8812  -1.8803  -1.8727
    -1.8699  -1.8675  -1.8468  -1.8465  -1.8349  -1.8332  -1.8280  -1.8228
    -1.7878  -1.7568  -1.7535  -1.7203  -1.7037  -1.7035  -1.6920  -1.6896
    -1.6696  -1.6693  -1.6545  -1.6535  -1.6532  -1.6512  -1.6471  -1.6352
    -1.6165  -1.6150  -1.6124  -1.5703  -1.5678  -1.5300  -1.5293  -1.4831
    -1.4824  -1.4689  -1.4472  -1.4413  -1.4399  -1.4234  -1.4205  -1.4059
    -1.4047  -1.4007  -1.3998  -1.3994  -1.3985  -1.3923  -1.3915  -1.3739
    -1.3730  -1.3587  -1.3467  -1.3288  -1.3258  -1.3025  -1.3000  -1.2996
    -1.2983  -1.2950  -1.2879  -1.2689  -1.2685  -1.2547  -1.2480  -1.2387
    -1.2323  -1.2176  -1.2112  -1.1875  -1.1872  -1.1799  -1.1761  -1.1439
    -1.1430  -1.1343  -1.1323  -1.1256  -1.1200  -1.1045  -1.1037  -1.0927
    -1.0847  -1.0837  -1.0730  -1.0724  -1.0714  -1.0635  -1.0576  -1.0468
    -1.0446  -1.0375  -1.0372  -1.0271  -1.0202  -1.0151  -1.0116  -0.9744
    -0.9739  -0.9683  -0.9658  -0.9642  -0.9561  -0.9267  -0.9101  -0.9099
    -0.9081  -0.9065  -0.9010  -0.8980  -0.8969  -0.8831  -0.8742  -0.8482
    -0.8400  -0.8394  -0.8333  -0.8165  -0.8157  -0.8067  -0.7772  -0.7695
    -0.7419  -0.7413  -0.7143  -0.7136  -0.7102  -0.7095  -0.7082  -0.7035
    -0.6994  -0.6968  -0.6950  -0.6946  -0.6630  -0.6628  -0.6460  -0.6424
    -0.6399  -0.6390  -0.6368  -0.6187  -0.6101  -0.3442  -0.3322  -0.2804
    -0.2557  -0.2345  -0.0783  -0.0118  -0.0111   0.0300   0.3071   0.3149
     0.6330   0.6531   0.7367   0.7369   0.7760   0.7807   0.9186   0.9366
     1.0458   1.0486   1.1370   1.7310   1.7511   1.7524   1.7903   1.7958
     1.8278   1.8489   1.9180   1.9367   2.1272   2.1323   2.3608   2.4376
     2.4581   2.4599   2.8297   2.8511   2.9135   2.9157   2.9209   2.9251
     3.0717   3.0740   3.0860   3.2085   3.2203   3.4450   3.4501   3.5820
     3.6075   3.6221   3.8762   3.8831   3.9568   4.0037   4.0137   4.0228
     4.0566   4.1979   4.2008   4.4355   4.4377   4.4902   4.5243   4.6026
     4.6475   4.6485   4.6644   4.7161   4.8584   5.3920   5.4197   5.4378
     5.5658   5.5771   5.6121   5.6796   5.7548   5.7568   5.7701   5.8717
     5.8731   5.9266   5.9280   5.9652   5.9873   6.0411   6.0769   6.1702
     6.1893   6.2063   6.2358   6.2503   6.2587   6.2646   6.2692   6.2867

          k = 0.2500 0.2500-0.2500 (167588 PWs)   bands (ev):

   -20.3229  -8.0991  -6.6927  -6.1648  -6.1639  -5.7351  -5.3432  -5.2412
    -5.2320  -5.0750  -5.0351  -5.0192  -4.9190  -4.8715  -4.8384  -4.7996
    -4.7387  -4.6577  -4.6520  -4.6150  -4.6077  -4.4548  -4.4370  -4.4357
    -4.4336  -4.4292  -4.3737  -4.3710  -4.3623  -4.3584  -4.3243  -4.3132
    -4.3031  -4.2697  -4.2658  -4.2363  -4.2352  -4.1841  -4.1828  -4.1734
    -4.1709  -4.1655  -4.1524  -4.1504  -4.1115  -4.0930  -4.0928  -4.0865
    -4.0851  -4.0535  -4.0038  -3.9893  -3.9880  -3.9856  -3.9830  -3.9743
    -3.9717  -3.9706  -3.9684  -3.9078  -3.9063  -3.8569  -3.8513  -3.8436
    -3.8179  -3.8178  -3.7967  -3.7943  -3.7920  -3.7909  -3.7878  -3.7388
    -3.7365  -3.7258  -3.7247  -3.6211  -3.6187  -3.6146  -3.6110  -3.5752
    -3.5704  -3.5524  -3.5239  -3.5207  -3.4948  -3.4916  -3.4730  -3.4723
    -3.4598  -3.4591  -3.4040  -3.4026  -3.3899  -3.3690  -3.3613  -3.3570
    -3.3567  -3.3563  -3.3291  -3.3289  -3.2935  -3.2891  -3.2717  -3.2701
    -3.2388  -3.2365  -3.2192  -3.1933  -3.1903  -3.1534  -3.1532  -3.1172
    -3.1091  -3.1089  -3.0959  -3.0949  -3.0899  -3.0883  -3.0538  -3.0412
    -3.0019  -3.0006  -2.9919  -2.9833  -2.9820  -2.9781  -2.9572  -2.9568
    -2.9362  -2.9357  -2.9338  -2.9099  -2.9083  -2.9005  -2.8993  -2.8961
    -2.8621  -2.8581  -2.8225  -2.8222  -2.8202  -2.8187  -2.8177  -2.7379
    -2.7284  -2.7251  -2.7246  -2.7241  -2.7230  -2.7206  -2.7171  -2.7166
    -2.7162  -2.7071  -2.6991  -2.6871  -2.6839  -2.6792  -2.6749  -2.6678
    -2.6648  -2.6222  -2.6209  -2.6203  -2.6175  -2.6142  -2.5990  -2.5973
    -2.5940  -2.5898  -2.5863  -2.5505  -2.5283  -2.5268  -2.5219  -2.5212
    -2.5145  -2.4891  -2.4611  -2.4294  -2.4268  -2.4265  -2.4243  -2.4142
    -2.4055  -2.4039  -2.3979  -2.3872  -2.3611  -2.3602  -2.3520  -2.3513
    -2.3490  -2.3329  -2.3103  -2.3098  -2.3005  -2.3001  -2.2995  -2.2806
    -2.2564  -2.2380  -2.2348  -2.1817  -2.1808  -2.1656  -2.1605  -2.1558
    -2.1461  -2.1087  -2.1085  -2.0837  -2.0711  -2.0537  -2.0530  -2.0497
    -2.0311  -2.0274  -2.0206  -2.0019  -1.9659  -1.9626  -1.9530  -1.9493
    -1.9481  -1.9376  -1.9353  -1.9253  -1.9205  -1.9196  -1.9160  -1.9140
    -1.9123  -1.9112  -1.9003  -1.8997  -1.8824  -1.8812  -1.8803  -1.8727
    -1.8699  -1.8675  -1.8468  -1.8465  -1.8349  -1.8332  -1.8280  -1.8228
    -1.7879  -1.7568  -1.7535  -1.7203  -1.7037  -1.7035  -1.6920  -1.6896
    -1.6696  -1.6693  -1.6545  -1.6535  -1.6531  -1.6512  -1.6471  -1.6352
    -1.6165  -1.6150  -1.6124  -1.5703  -1.5678  -1.5300  -1.5293  -1.4831
    -1.4824  -1.4689  -1.4472  -1.4413  -1.4399  -1.4234  -1.4205  -1.4059
    -1.4047  -1.4007  -1.3998  -1.3994  -1.3985  -1.3923  -1.3914  -1.3739
    -1.3730  -1.3587  -1.3467  -1.3288  -1.3258  -1.3025  -1.3000  -1.2996
    -1.2983  -1.2950  -1.2879  -1.2689  -1.2685  -1.2547  -1.2480  -1.2387
    -1.2323  -1.2176  -1.2112  -1.1875  -1.1872  -1.1799  -1.1761  -1.1439
    -1.1430  -1.1343  -1.1323  -1.1256  -1.1200  -1.1045  -1.1037  -1.0927
    -1.0847  -1.0837  -1.0730  -1.0724  -1.0714  -1.0635  -1.0576  -1.0468
    -1.0446  -1.0375  -1.0372  -1.0271  -1.0202  -1.0151  -1.0116  -0.9744
    -0.9739  -0.9683  -0.9658  -0.9642  -0.9561  -0.9267  -0.9101  -0.9099
    -0.9081  -0.9065  -0.9010  -0.8980  -0.8969  -0.8831  -0.8742  -0.8482
    -0.8400  -0.8394  -0.8333  -0.8165  -0.8157  -0.8067  -0.7773  -0.7695
    -0.7419  -0.7413  -0.7143  -0.7136  -0.7103  -0.7095  -0.7082  -0.7035
    -0.6994  -0.6968  -0.6950  -0.6946  -0.6630  -0.6628  -0.6460  -0.6424
    -0.6399  -0.6390  -0.6368  -0.6187  -0.6101  -0.3442  -0.3322  -0.2804
    -0.2557  -0.2345  -0.0783  -0.0118  -0.0111   0.0300   0.3071   0.3149
     0.6330   0.6531   0.7367   0.7369   0.7760   0.7807   0.9186   0.9366
     1.0458   1.0486   1.1370   1.7310   1.7511   1.7524   1.7904   1.7958
     1.8279   1.8489   1.9180   1.9367   2.1272   2.1323   2.3608   2.4376
     2.4581   2.4599   2.8297   2.8511   2.9135   2.9157   2.9209   2.9251
     3.0717   3.0740   3.0861   3.2085   3.2203   3.4450   3.4501   3.5820
     3.6075   3.6221   3.8762   3.8831   3.9569   4.0037   4.0137   4.0228
     4.0567   4.1979   4.2008   4.4354   4.4377   4.4900   4.5243   4.6020
     4.6475   4.6485   4.6644   4.7161   4.8571   5.3869   5.4122   5.4203
     5.5653   5.5766   5.6562   5.7051   5.7566   5.7570   5.7723   5.8716
     5.8726   5.9271   5.9280   5.9583   5.9713   6.0608   6.1054   6.1539
     6.2099   6.2379   6.2436   6.2525   6.2640   6.2687   6.2833   6.2870

          k =-0.2500-0.2500 0.0833 (167653 PWs)   bands (ev):

   -20.3229  -8.0991  -6.6927  -6.1648  -6.1639  -5.7351  -5.3432  -5.2412
    -5.2320  -5.0750  -5.0351  -5.0192  -4.9190  -4.8715  -4.8384  -4.7996
    -4.7387  -4.6577  -4.6520  -4.6150  -4.6077  -4.4548  -4.4370  -4.4357
    -4.4336  -4.4292  -4.3737  -4.3710  -4.3623  -4.3584  -4.3243  -4.3132
    -4.3031  -4.2697  -4.2658  -4.2363  -4.2352  -4.1841  -4.1828  -4.1734
    -4.1709  -4.1655  -4.1524  -4.1504  -4.1115  -4.0930  -4.0928  -4.0865
    -4.0851  -4.0535  -4.0038  -3.9893  -3.9880  -3.9856  -3.9830  -3.9743
    -3.9717  -3.9706  -3.9684  -3.9078  -3.9063  -3.8569  -3.8513  -3.8436
    -3.8179  -3.8178  -3.7967  -3.7943  -3.7920  -3.7909  -3.7878  -3.7388
    -3.7365  -3.7258  -3.7247  -3.6211  -3.6187  -3.6146  -3.6110  -3.5752
    -3.5704  -3.5524  -3.5239  -3.5207  -3.4948  -3.4916  -3.4730  -3.4723
    -3.4598  -3.4591  -3.4040  -3.4026  -3.3899  -3.3690  -3.3613  -3.3570
    -3.3567  -3.3563  -3.3291  -3.3289  -3.2935  -3.2891  -3.2717  -3.2701
    -3.2388  -3.2365  -3.2192  -3.1933  -3.1903  -3.1534  -3.1532  -3.1172
    -3.1091  -3.1089  -3.0959  -3.0949  -3.0899  -3.0883  -3.0538  -3.0412
    -3.0019  -3.0006  -2.9919  -2.9833  -2.9820  -2.9781  -2.9572  -2.9568
    -2.9362  -2.9357  -2.9339  -2.9099  -2.9083  -2.9005  -2.8993  -2.8961
    -2.8621  -2.8581  -2.8225  -2.8222  -2.8202  -2.8187  -2.8177  -2.7379
    -2.7284  -2.7251  -2.7246  -2.7241  -2.7230  -2.7206  -2.7171  -2.7166
    -2.7162  -2.7071  -2.6991  -2.6871  -2.6839  -2.6792  -2.6749  -2.6678
    -2.6649  -2.6222  -2.6209  -2.6203  -2.6175  -2.6142  -2.5990  -2.5973
    -2.5940  -2.5898  -2.5863  -2.5505  -2.5283  -2.5268  -2.5219  -2.5212
    -2.5145  -2.4891  -2.4611  -2.4294  -2.4268  -2.4265  -2.4243  -2.4142
    -2.4055  -2.4039  -2.3979  -2.3872  -2.3611  -2.3602  -2.3520  -2.3513
    -2.3490  -2.3329  -2.3103  -2.3097  -2.3005  -2.3001  -2.2994  -2.2806
    -2.2564  -2.2380  -2.2348  -2.1817  -2.1809  -2.1656  -2.1605  -2.1558
    -2.1461  -2.1087  -2.1085  -2.0836  -2.0711  -2.0537  -2.0530  -2.0497
    -2.0311  -2.0274  -2.0206  -2.0019  -1.9659  -1.9626  -1.9530  -1.9493
    -1.9481  -1.9376  -1.9353  -1.9253  -1.9205  -1.9196  -1.9160  -1.9140
    -1.9123  -1.9112  -1.9003  -1.8997  -1.8824  -1.8812  -1.8803  -1.8727
    -1.8699  -1.8675  -1.8468  -1.8465  -1.8349  -1.8332  -1.8280  -1.8228
    -1.7878  -1.7568  -1.7535  -1.7203  -1.7037  -1.7035  -1.6920  -1.6896
    -1.6696  -1.6693  -1.6545  -1.6535  -1.6532  -1.6512  -1.6471  -1.6352
    -1.6165  -1.6150  -1.6124  -1.5703  -1.5678  -1.5300  -1.5293  -1.4831
    -1.4824  -1.4689  -1.4472  -1.4413  -1.4399  -1.4234  -1.4205  -1.4059
    -1.4047  -1.4007  -1.3998  -1.3994  -1.3985  -1.3923  -1.3915  -1.3739
    -1.3730  -1.3587  -1.3467  -1.3288  -1.3258  -1.3025  -1.3000  -1.2996
    -1.2983  -1.2950  -1.2879  -1.2689  -1.2685  -1.2547  -1.2480  -1.2387
    -1.2323  -1.2176  -1.2112  -1.1875  -1.1872  -1.1799  -1.1761  -1.1439
    -1.1430  -1.1343  -1.1323  -1.1256  -1.1200  -1.1045  -1.1037  -1.0927
    -1.0847  -1.0837  -1.0730  -1.0724  -1.0714  -1.0635  -1.0576  -1.0468
    -1.0446  -1.0375  -1.0372  -1.0271  -1.0202  -1.0151  -1.0116  -0.9744
    -0.9739  -0.9683  -0.9658  -0.9642  -0.9561  -0.9267  -0.9101  -0.9099
    -0.9081  -0.9065  -0.9010  -0.8980  -0.8969  -0.8831  -0.8742  -0.8482
    -0.8400  -0.8394  -0.8333  -0.8165  -0.8157  -0.8067  -0.7772  -0.7695
    -0.7419  -0.7413  -0.7143  -0.7136  -0.7102  -0.7095  -0.7082  -0.7035
    -0.6994  -0.6968  -0.6950  -0.6946  -0.6630  -0.6628  -0.6460  -0.6424
    -0.6399  -0.6390  -0.6368  -0.6187  -0.6101  -0.3442  -0.3322  -0.2804
    -0.2557  -0.2345  -0.0783  -0.0118  -0.0111   0.0300   0.3071   0.3149
     0.6330   0.6531   0.7367   0.7369   0.7760   0.7807   0.9186   0.9366
     1.0458   1.0486   1.1370   1.7310   1.7511   1.7524   1.7903   1.7958
     1.8278   1.8489   1.9180   1.9367   2.1272   2.1323   2.3608   2.4376
     2.4581   2.4599   2.8297   2.8511   2.9135   2.9157   2.9209   2.9251
     3.0717   3.0740   3.0860   3.2085   3.2203   3.4450   3.4501   3.5820
     3.6075   3.6221   3.8762   3.8831   3.9568   4.0037   4.0137   4.0228
     4.0566   4.1979   4.2008   4.4355   4.4377   4.4902   4.5243   4.6026
     4.6475   4.6485   4.6644   4.7161   4.8584   5.3919   5.4197   5.4377
     5.5658   5.5772   5.6125   5.6796   5.7546   5.7568   5.7700   5.8717
     5.8731   5.9266   5.9280   5.9651   5.9874   6.0394   6.0770   6.1703
     6.1900   6.2069   6.2358   6.2503   6.2587   6.2646   6.2692   6.2866

          k =-0.2500 0.2500-0.0833 (167653 PWs)   bands (ev):

   -20.3229  -8.0991  -6.6927  -6.1647  -6.1640  -5.7351  -5.3432  -5.2405
    -5.2327  -5.0752  -5.0350  -5.0190  -4.9200  -4.8704  -4.8385  -4.7999
    -4.7390  -4.6576  -4.6518  -4.6152  -4.6072  -4.4549  -4.4376  -4.4356
    -4.4333  -4.4292  -4.3737  -4.3710  -4.3630  -4.3579  -4.3243  -4.3141
    -4.3025  -4.2698  -4.2656  -4.2363  -4.2350  -4.1849  -4.1818  -4.1736
    -4.1709  -4.1655  -4.1523  -4.1504  -4.1119  -4.0935  -4.0924  -4.0867
    -4.0848  -4.0539  -4.0041  -3.9899  -3.9875  -3.9858  -3.9821  -3.9739
    -3.9716  -3.9707  -3.9683  -3.9084  -3.9049  -3.8576  -3.8510  -3.8442
    -3.8177  -3.8174  -3.7963  -3.7946  -3.7912  -3.7907  -3.7878  -3.7385
    -3.7366  -3.7263  -3.7243  -3.6218  -3.6190  -3.6153  -3.6112  -3.5753
    -3.5704  -3.5524  -3.5236  -3.5208  -3.4955  -3.4911  -3.4733  -3.4727
    -3.4606  -3.4586  -3.4044  -3.4026  -3.3875  -3.3689  -3.3600  -3.3574
    -3.3572  -3.3562  -3.3298  -3.3291  -3.2926  -3.2891  -3.2716  -3.2711
    -3.2379  -3.2374  -3.2192  -3.1914  -3.1906  -3.1539  -3.1529  -3.1186
    -3.1089  -3.1088  -3.0970  -3.0961  -3.0900  -3.0881  -3.0537  -3.0414
    -3.0012  -3.0010  -2.9920  -2.9830  -2.9826  -2.9779  -2.9573  -2.9567
    -2.9369  -2.9358  -2.9329  -2.9083  -2.9081  -2.9009  -2.8981  -2.8965
    -2.8614  -2.8579  -2.8230  -2.8226  -2.8221  -2.8185  -2.8182  -2.7381
    -2.7291  -2.7255  -2.7242  -2.7230  -2.7226  -2.7186  -2.7171  -2.7168
    -2.7163  -2.7069  -2.6990  -2.6868  -2.6806  -2.6793  -2.6755  -2.6656
    -2.6610  -2.6253  -2.6221  -2.6211  -2.6199  -2.6182  -2.5988  -2.5975
    -2.5911  -2.5896  -2.5862  -2.5446  -2.5285  -2.5243  -2.5218  -2.5188
    -2.5147  -2.4970  -2.4559  -2.4291  -2.4271  -2.4259  -2.4255  -2.4144
    -2.4139  -2.4052  -2.3974  -2.3943  -2.3623  -2.3571  -2.3534  -2.3522
    -2.3491  -2.3393  -2.3124  -2.3100  -2.3014  -2.3003  -2.2991  -2.2941
    -2.2548  -2.2361  -2.2211  -2.1820  -2.1801  -2.1636  -2.1611  -2.1576
    -2.1448  -2.1097  -2.0974  -2.0840  -2.0616  -2.0554  -2.0530  -2.0520
    -2.0306  -2.0280  -2.0208  -2.0019  -1.9663  -1.9625  -1.9497  -1.9486
    -1.9429  -1.9386  -1.9380  -1.9239  -1.9227  -1.9192  -1.9173  -1.9158
    -1.9113  -1.9066  -1.9003  -1.8989  -1.8822  -1.8801  -1.8745  -1.8736
    -1.8704  -1.8700  -1.8469  -1.8455  -1.8343  -1.8341  -1.8296  -1.8202
    -1.7876  -1.7582  -1.7523  -1.7203  -1.7047  -1.7021  -1.6948  -1.6916
    -1.6708  -1.6600  -1.6567  -1.6548  -1.6530  -1.6513  -1.6511  -1.6477
    -1.6170  -1.6152  -1.6115  -1.5716  -1.5663  -1.5306  -1.5299  -1.4834
    -1.4808  -1.4687  -1.4477  -1.4404  -1.4402  -1.4237  -1.4222  -1.4057
    -1.4030  -1.4009  -1.3999  -1.3991  -1.3962  -1.3956  -1.3891  -1.3751
    -1.3738  -1.3578  -1.3471  -1.3294  -1.3286  -1.3019  -1.3009  -1.2990
    -1.2987  -1.2936  -1.2843  -1.2725  -1.2666  -1.2575  -1.2479  -1.2344
    -1.2323  -1.2188  -1.2106  -1.1882  -1.1870  -1.1802  -1.1751  -1.1446
    -1.1406  -1.1348  -1.1315  -1.1275  -1.1187  -1.1042  -1.1030  -1.0935
    -1.0856  -1.0834  -1.0735  -1.0731  -1.0714  -1.0623  -1.0582  -1.0463
    -1.0432  -1.0381  -1.0368  -1.0254  -1.0234  -1.0157  -1.0126  -0.9759
    -0.9722  -0.9663  -0.9660  -0.9653  -0.9562  -0.9269  -0.9114  -0.9086
    -0.9084  -0.9064  -0.9055  -0.8985  -0.8962  -0.8833  -0.8732  -0.8494
    -0.8398  -0.8396  -0.8313  -0.8168  -0.8148  -0.8068  -0.7781  -0.7700
    -0.7424  -0.7405  -0.7141  -0.7138  -0.7101  -0.7097  -0.7081  -0.7032
    -0.6996  -0.6964  -0.6950  -0.6940  -0.6640  -0.6619  -0.6484  -0.6426
    -0.6400  -0.6389  -0.6387  -0.6190  -0.6053  -0.3441  -0.3322  -0.2840
    -0.2523  -0.2344  -0.0757  -0.0127  -0.0092   0.0300   0.3045   0.3175
     0.6299   0.6555   0.7355   0.7391   0.7745   0.7840   0.9137   0.9404
     1.0457   1.0481   1.1383   1.7331   1.7516   1.7520   1.7861   1.7957
     1.8204   1.8536   1.9150   1.9426   2.1252   2.1344   2.3592   2.4344
     2.4583   2.4619   2.8239   2.8493   2.9120   2.9174   2.9199   2.9274
     3.0727   3.0729   3.0816   3.2031   3.2360   3.4442   3.4648   3.5816
     3.6048   3.6235   3.8721   3.8924   3.9795   3.9981   4.0129   4.0170
     4.0391   4.1962   4.2033   4.4371   4.4377   4.4969   4.5194   4.5540
     4.6455   4.6519   4.6574   4.7186   4.9094   5.3530   5.4302   5.5012
     5.5172   5.5970   5.6026   5.6290   5.7540   5.7619   5.7743   5.8676
     5.8750   5.9261   5.9311   5.9730   6.0163   6.0240   6.1053   6.1333
     6.1964   6.2367   6.2447   6.2494   6.2508   6.2613   6.2774   6.2786

          k = 0.2500-0.2500-0.0833 (167653 PWs)   bands (ev):

   -20.3229  -8.0991  -6.6927  -6.1647  -6.1640  -5.7351  -5.3432  -5.2405
    -5.2327  -5.0752  -5.0350  -5.0190  -4.9200  -4.8704  -4.8385  -4.7999
    -4.7390  -4.6576  -4.6518  -4.6152  -4.6072  -4.4549  -4.4376  -4.4356
    -4.4333  -4.4292  -4.3737  -4.3710  -4.3630  -4.3579  -4.3243  -4.3141
    -4.3025  -4.2698  -4.2656  -4.2363  -4.2350  -4.1849  -4.1818  -4.1736
    -4.1709  -4.1655  -4.1523  -4.1504  -4.1119  -4.0935  -4.0924  -4.0867
    -4.0848  -4.0539  -4.0041  -3.9899  -3.9875  -3.9858  -3.9821  -3.9739
    -3.9716  -3.9707  -3.9683  -3.9084  -3.9049  -3.8576  -3.8510  -3.8442
    -3.8177  -3.8174  -3.7963  -3.7946  -3.7912  -3.7907  -3.7878  -3.7385
    -3.7366  -3.7263  -3.7243  -3.6218  -3.6190  -3.6153  -3.6112  -3.5753
    -3.5704  -3.5524  -3.5236  -3.5208  -3.4955  -3.4911  -3.4733  -3.4727
    -3.4606  -3.4586  -3.4044  -3.4026  -3.3875  -3.3689  -3.3600  -3.3574
    -3.3572  -3.3562  -3.3298  -3.3291  -3.2926  -3.2891  -3.2716  -3.2711
    -3.2379  -3.2374  -3.2192  -3.1914  -3.1906  -3.1539  -3.1529  -3.1186
    -3.1089  -3.1088  -3.0970  -3.0961  -3.0900  -3.0881  -3.0537  -3.0414
    -3.0012  -3.0010  -2.9920  -2.9830  -2.9826  -2.9779  -2.9573  -2.9567
    -2.9369  -2.9358  -2.9329  -2.9083  -2.9081  -2.9009  -2.8981  -2.8965
    -2.8614  -2.8579  -2.8230  -2.8226  -2.8221  -2.8185  -2.8182  -2.7381
    -2.7291  -2.7255  -2.7242  -2.7230  -2.7226  -2.7186  -2.7171  -2.7168
    -2.7163  -2.7069  -2.6990  -2.6868  -2.6806  -2.6793  -2.6755  -2.6656
    -2.6610  -2.6253  -2.6221  -2.6211  -2.6199  -2.6182  -2.5988  -2.5975
    -2.5911  -2.5896  -2.5862  -2.5446  -2.5285  -2.5243  -2.5218  -2.5188
    -2.5147  -2.4970  -2.4559  -2.4291  -2.4271  -2.4259  -2.4255  -2.4144
    -2.4139  -2.4052  -2.3974  -2.3943  -2.3623  -2.3571  -2.3534  -2.3522
    -2.3491  -2.3393  -2.3124  -2.3100  -2.3014  -2.3003  -2.2991  -2.2941
    -2.2548  -2.2361  -2.2211  -2.1820  -2.1801  -2.1636  -2.1611  -2.1576
    -2.1448  -2.1097  -2.0974  -2.0840  -2.0616  -2.0554  -2.0530  -2.0520
    -2.0306  -2.0280  -2.0208  -2.0019  -1.9663  -1.9625  -1.9497  -1.9486
    -1.9429  -1.9386  -1.9380  -1.9239  -1.9227  -1.9192  -1.9173  -1.9158
    -1.9113  -1.9066  -1.9003  -1.8989  -1.8822  -1.8801  -1.8745  -1.8736
    -1.8704  -1.8700  -1.8469  -1.8455  -1.8343  -1.8341  -1.8296  -1.8202
    -1.7876  -1.7582  -1.7523  -1.7203  -1.7047  -1.7021  -1.6948  -1.6916
    -1.6708  -1.6600  -1.6567  -1.6548  -1.6530  -1.6513  -1.6511  -1.6477
    -1.6170  -1.6152  -1.6115  -1.5716  -1.5663  -1.5306  -1.5299  -1.4834
    -1.4808  -1.4687  -1.4477  -1.4404  -1.4402  -1.4237  -1.4222  -1.4057
    -1.4030  -1.4009  -1.3999  -1.3991  -1.3962  -1.3956  -1.3891  -1.3751
    -1.3738  -1.3578  -1.3471  -1.3294  -1.3286  -1.3019  -1.3009  -1.2990
    -1.2987  -1.2936  -1.2843  -1.2725  -1.2666  -1.2575  -1.2479  -1.2344
    -1.2323  -1.2188  -1.2106  -1.1882  -1.1870  -1.1802  -1.1751  -1.1446
    -1.1406  -1.1348  -1.1315  -1.1275  -1.1187  -1.1042  -1.1030  -1.0935
    -1.0856  -1.0834  -1.0735  -1.0731  -1.0714  -1.0623  -1.0582  -1.0463
    -1.0432  -1.0381  -1.0368  -1.0254  -1.0234  -1.0157  -1.0126  -0.9759
    -0.9722  -0.9663  -0.9660  -0.9653  -0.9562  -0.9269  -0.9114  -0.9086
    -0.9084  -0.9064  -0.9055  -0.8985  -0.8962  -0.8833  -0.8732  -0.8494
    -0.8398  -0.8396  -0.8313  -0.8168  -0.8148  -0.8068  -0.7781  -0.7700
    -0.7424  -0.7405  -0.7141  -0.7138  -0.7101  -0.7097  -0.7081  -0.7032
    -0.6996  -0.6964  -0.6950  -0.6940  -0.6640  -0.6619  -0.6484  -0.6426
    -0.6400  -0.6389  -0.6387  -0.6190  -0.6053  -0.3441  -0.3322  -0.2840
    -0.2523  -0.2344  -0.0757  -0.0127  -0.0092   0.0300   0.3045   0.3175
     0.6299   0.6555   0.7355   0.7391   0.7745   0.7840   0.9137   0.9404
     1.0457   1.0481   1.1383   1.7331   1.7516   1.7520   1.7861   1.7957
     1.8204   1.8536   1.9150   1.9426   2.1252   2.1344   2.3592   2.4344
     2.4583   2.4619   2.8239   2.8493   2.9120   2.9174   2.9199   2.9274
     3.0727   3.0729   3.0816   3.2031   3.2360   3.4442   3.4648   3.5816
     3.6048   3.6235   3.8721   3.8924   3.9795   3.9981   4.0129   4.0170
     4.0391   4.1962   4.2033   4.4371   4.4377   4.4969   4.5194   4.5540
     4.6455   4.6519   4.6574   4.7186   4.9094   5.3530   5.4302   5.5010
     5.5174   5.5970   5.6027   5.6288   5.7540   5.7619   5.7743   5.8676
     5.8750   5.9261   5.9311   5.9730   6.0162   6.0240   6.1051   6.1336
     6.1964   6.2369   6.2446   6.2493   6.2507   6.2613   6.2775   6.2786

          k =-0.2500 0.2500 0.2500 (167588 PWs)   bands (ev):

   -20.3229  -8.0991  -6.6927  -6.1647  -6.1640  -5.7351  -5.3432  -5.2405
    -5.2327  -5.0752  -5.0350  -5.0190  -4.9200  -4.8704  -4.8385  -4.7999
    -4.7390  -4.6576  -4.6518  -4.6152  -4.6071  -4.4549  -4.4376  -4.4356
    -4.4333  -4.4292  -4.3737  -4.3710  -4.3630  -4.3579  -4.3243  -4.3141
    -4.3025  -4.2698  -4.2656  -4.2363  -4.2351  -4.1849  -4.1818  -4.1736
    -4.1709  -4.1655  -4.1523  -4.1504  -4.1120  -4.0935  -4.0924  -4.0867
    -4.0848  -4.0539  -4.0041  -3.9899  -3.9875  -3.9858  -3.9821  -3.9739
    -3.9716  -3.9707  -3.9683  -3.9084  -3.9049  -3.8576  -3.8510  -3.8442
    -3.8177  -3.8174  -3.7963  -3.7946  -3.7912  -3.7907  -3.7878  -3.7385
    -3.7366  -3.7263  -3.7243  -3.6218  -3.6190  -3.6153  -3.6112  -3.5753
    -3.5704  -3.5524  -3.5236  -3.5208  -3.4955  -3.4911  -3.4733  -3.4727
    -3.4606  -3.4586  -3.4044  -3.4026  -3.3875  -3.3689  -3.3600  -3.3574
    -3.3572  -3.3562  -3.3298  -3.3291  -3.2926  -3.2891  -3.2716  -3.2711
    -3.2379  -3.2374  -3.2192  -3.1914  -3.1906  -3.1539  -3.1529  -3.1186
    -3.1089  -3.1088  -3.0970  -3.0961  -3.0900  -3.0880  -3.0537  -3.0414
    -3.0012  -3.0010  -2.9920  -2.9830  -2.9826  -2.9779  -2.9573  -2.9567
    -2.9369  -2.9358  -2.9329  -2.9083  -2.9081  -2.9009  -2.8980  -2.8964
    -2.8614  -2.8579  -2.8230  -2.8226  -2.8221  -2.8185  -2.8182  -2.7381
    -2.7291  -2.7255  -2.7242  -2.7230  -2.7226  -2.7186  -2.7171  -2.7168
    -2.7163  -2.7069  -2.6990  -2.6868  -2.6806  -2.6793  -2.6755  -2.6656
    -2.6610  -2.6253  -2.6221  -2.6211  -2.6199  -2.6182  -2.5988  -2.5975
    -2.5911  -2.5896  -2.5862  -2.5446  -2.5285  -2.5243  -2.5218  -2.5188
    -2.5146  -2.4970  -2.4559  -2.4291  -2.4271  -2.4259  -2.4255  -2.4144
    -2.4139  -2.4052  -2.3974  -2.3943  -2.3623  -2.3570  -2.3534  -2.3522
    -2.3491  -2.3392  -2.3124  -2.3100  -2.3014  -2.3003  -2.2991  -2.2941
    -2.2548  -2.2361  -2.2211  -2.1820  -2.1801  -2.1636  -2.1611  -2.1576
    -2.1448  -2.1096  -2.0974  -2.0841  -2.0616  -2.0554  -2.0530  -2.0520
    -2.0306  -2.0280  -2.0208  -2.0020  -1.9663  -1.9625  -1.9497  -1.9486
    -1.9429  -1.9386  -1.9380  -1.9239  -1.9227  -1.9192  -1.9173  -1.9158
    -1.9113  -1.9066  -1.9003  -1.8989  -1.8822  -1.8801  -1.8745  -1.8736
    -1.8704  -1.8700  -1.8469  -1.8455  -1.8343  -1.8341  -1.8296  -1.8202
    -1.7876  -1.7582  -1.7523  -1.7203  -1.7047  -1.7021  -1.6948  -1.6916
    -1.6708  -1.6600  -1.6567  -1.6548  -1.6530  -1.6513  -1.6511  -1.6477
    -1.6170  -1.6152  -1.6115  -1.5716  -1.5663  -1.5306  -1.5299  -1.4834
    -1.4808  -1.4687  -1.4477  -1.4404  -1.4402  -1.4237  -1.4222  -1.4057
    -1.4030  -1.4009  -1.3999  -1.3991  -1.3962  -1.3956  -1.3891  -1.3751
    -1.3738  -1.3578  -1.3471  -1.3294  -1.3286  -1.3019  -1.3009  -1.2990
    -1.2987  -1.2936  -1.2843  -1.2725  -1.2666  -1.2575  -1.2479  -1.2344
    -1.2323  -1.2188  -1.2106  -1.1882  -1.1870  -1.1802  -1.1751  -1.1446
    -1.1406  -1.1348  -1.1315  -1.1275  -1.1187  -1.1042  -1.1030  -1.0935
    -1.0856  -1.0834  -1.0735  -1.0731  -1.0714  -1.0623  -1.0583  -1.0463
    -1.0432  -1.0381  -1.0368  -1.0254  -1.0234  -1.0157  -1.0126  -0.9759
    -0.9723  -0.9663  -0.9660  -0.9654  -0.9562  -0.9269  -0.9114  -0.9085
    -0.9084  -0.9064  -0.9055  -0.8985  -0.8962  -0.8833  -0.8732  -0.8494
    -0.8398  -0.8396  -0.8313  -0.8168  -0.8148  -0.8068  -0.7781  -0.7700
    -0.7424  -0.7405  -0.7141  -0.7138  -0.7101  -0.7097  -0.7081  -0.7032
    -0.6996  -0.6964  -0.6950  -0.6940  -0.6640  -0.6619  -0.6484  -0.6426
    -0.6400  -0.6389  -0.6387  -0.6190  -0.6053  -0.3441  -0.3322  -0.2840
    -0.2523  -0.2344  -0.0757  -0.0127  -0.0092   0.0300   0.3045   0.3175
     0.6299   0.6555   0.7355   0.7391   0.7745   0.7840   0.9137   0.9404
     1.0457   1.0481   1.1383   1.7331   1.7516   1.7520   1.7861   1.7957
     1.8204   1.8536   1.9150   1.9426   2.1252   2.1344   2.3592   2.4344
     2.4583   2.4619   2.8239   2.8493   2.9120   2.9174   2.9199   2.9274
     3.0727   3.0729   3.0816   3.2031   3.2360   3.4442   3.4648   3.5816
     3.6048   3.6235   3.8721   3.8924   3.9796   3.9982   4.0129   4.0170
     4.0392   4.1962   4.2033   4.4371   4.4377   4.4965   4.5194   4.5536
     4.6455   4.6519   4.6574   4.7186   4.9076   5.3522   5.4101   5.4901
     5.5117   5.5946   5.5973   5.7387   5.7538   5.7546   5.7770   5.8673
     5.8758   5.9260   5.9309   5.9727   5.9799   6.0335   6.0805   6.2098
     6.2140   6.2250   6.2472   6.2529   6.2634   6.2648   6.2775   6.2790

     the Fermi energy is     0.9985 ev

!    total energy              =   -7425.29320651 Ry
     Harris-Foulkes estimate   =   -7425.29320654 Ry
     estimated scf accuracy    <          8.9E-09 Ry

     The total energy is the sum of the following terms:

     one-electron contribution =  -48826.86202483 Ry
     hartree contribution      =   24967.79784566 Ry
     xc contribution           =   -3604.22930936 Ry
     ewald contribution        =   20038.00298159 Ry
     smearing contrib. (-TS)   =      -0.00269957 Ry

     convergence has been achieved in  27 iterations

     Writing output data file 3779001.save

     init_run     :    106.97s CPU    114.59s WALL (       1 calls)
     electrons    :   6454.50s CPU   6912.76s WALL (       1 calls)

     Called by init_run:
     wfcinit      :     78.54s CPU     85.31s WALL (       1 calls)
     potinit      :      5.46s CPU      5.91s WALL (       1 calls)

     Called by electrons:
     c_bands      :   5214.69s CPU   5585.52s WALL (      28 calls)
     sum_band     :    759.51s CPU    829.28s WALL (      28 calls)
     v_of_rho     :     96.74s CPU    108.39s WALL (      28 calls)
     newd         :    395.09s CPU    400.67s WALL (      28 calls)
     mix_rho      :      3.20s CPU      3.58s WALL (      28 calls)
     vdW_energy   :     10.47s CPU     11.73s WALL (      28 calls)
     vdW_ffts     :     42.89s CPU     48.50s WALL (      56 calls)
     vdW_v        :     12.91s CPU     13.79s WALL (      28 calls)

     Called by c_bands:
     init_us_2    :     17.81s CPU     18.17s WALL (     342 calls)
     cegterg      :   5152.30s CPU   5519.28s WALL (     168 calls)

     Called by *egterg:
     h_psi        :   2100.89s CPU   2411.77s WALL (     835 calls)
     s_psi        :    372.94s CPU    375.07s WALL (     835 calls)
     g_psi        :      4.61s CPU      4.60s WALL (     661 calls)
     cdiaghg      :   1417.32s CPU   1420.52s WALL (     823 calls)

     Called by h_psi:
     add_vuspsi   :    375.25s CPU    377.43s WALL (     835 calls)

     General routines
     calbec       :    576.74s CPU    578.65s WALL (    1003 calls)
     fft          :    126.74s CPU    136.56s WALL (    1848 calls)
     ffts         :      1.46s CPU      1.71s WALL (      56 calls)
     fftw         :   1368.30s CPU   1690.94s WALL (  449426 calls)
     interpolate  :      4.03s CPU      4.80s WALL (      56 calls)
     davcio       :      0.00s CPU      0.20s WALL (       6 calls)

     Parallel routines
     fft_scatter  :    934.23s CPU   1162.79s WALL (  451330 calls)

     PWSCF        :     1h49m CPU        1h57m WALL


   This run was terminated on:  14: 3:44  23Jun2015            

=------------------------------------------------------------------------------=
   JOB DONE.
=------------------------------------------------------------------------------=
