Setting SGE environment for SCC

     Program PWSCF v.5.1.2 starts on 25Jun2015 at  1:25:29 

     This program is part of the open-source Quantum ESPRESSO suite
     for quantum simulation of materials; please cite
         "P. Giannozzi et al., J. Phys.:Condens. Matter 21 395502 (2009);
          URL http://www.quantum-espresso.org", 
     in publications or presentations arising from this work. More details at
     http://www.quantum-espresso.org/quote

     Parallel version (MPI), running on    32 processors
     R & G space division:  proc/nbgrp/npool/nimage =      32
     Reading input from top.O1.Au62.d.3.4.phi.25.psi.90.in
Warning: card &IONS ignored
Warning: card / ignored
Warning: card &CELL ignored
Warning: card / ignored

     Current dimensions of program PWSCF are:
     Max number of different atomic species (ntypx) = 10
     Max number of k-points (npk) =  40000
     Max angular momentum in pseudopotentials (lmaxx) =  3

     IMPORTANT: XC functional enforced from input :
     Exchange-correlation      = VDW-DF ( 1  4  4  0 1 0)
     Any further DFT definition will be discarded
     Please, verify this is what you really want


     Subspace diagonalization in iterative solution of the eigenvalue problem:
     a serial algorithm will be used


     Parallelization info
     --------------------
     sticks:   dense  smooth     PW     G-vecs:    dense   smooth      PW
     Min         578     289     74               118518    41891    5486
     Max         579     290     75               118533    41932    5497
     Sum       18505    9265   2385              3792731  1341081  175711


     Title: 
     top.O1.Au62.d.3.4.phi.25.psi.90                                            


     bravais-lattice index     =            8
     lattice parameter (alat)  =      24.1233  a.u.
     unit-cell volume          =   28076.2361 (a.u.)^3
     number of atoms/cell      =           75
     number of atomic types    =            3
     number of electrons       =       800.00
     number of Kohn-Sham states=          480
     kinetic-energy cutoff     =      50.0000  Ry
     charge density cutoff     =     400.0000  Ry
     convergence threshold     =      1.0E-08
     mixing beta               =       0.7000
     number of iterations used =            8  plain     mixing
     Exchange-correlation      = VDW-DF ( 1  4  4  0 1 0)

     celldm(1)=  24.123277  celldm(2)=   1.000000  celldm(3)=   2.000000
     celldm(4)=   0.000000  celldm(5)=   0.000000  celldm(6)=   0.000000

     crystal axes: (cart. coord. in units of alat)
               a(1) = (   1.000000   0.000000   0.000000 )  
               a(2) = (   0.000000   1.000000   0.000000 )  
               a(3) = (   0.000000   0.000000   2.000000 )  

     reciprocal axes: (cart. coord. in units 2 pi/alat)
               b(1) = (  1.000000  0.000000  0.000000 )  
               b(2) = (  0.000000  1.000000  0.000000 )  
               b(3) = (  0.000000  0.000000  0.500000 )  


     PseudoPot. # 1 for Au read from file:
     /home/scc/andrejb/qe/pseudo/Au.pbe-nd-van.UPF
     MD5 check sum: 458681b50f36d87ef23c61b04bba420a
     Pseudo is Ultrasoft + core correction, Zval = 11.0
     Generated by new atomic code, or converted to UPF format
     Using radial grid of  985 points,  3 beta functions with: 
                l(1) =   1
                l(2) =   2
                l(3) =   2
     Q(r) pseudized with  8 coefficients,  rinner =    1.100   1.100   1.100
                                                       1.100   1.100

     PseudoPot. # 2 for H  read from file:
     /home/scc/andrejb/qe/pseudo/H.pbe-van_ak.UPF
     MD5 check sum: 403db7282739603aa925980fa9b8608d
     Pseudo is Ultrasoft, Zval =  1.0
     Generated by new atomic code, or converted to UPF format
     Using radial grid of  615 points,  1 beta functions with: 
                l(1) =   0
     Q(r) pseudized with  8 coefficients,  rinner =    0.800

     PseudoPot. # 3 for O  read from file:
     /home/scc/andrejb/qe/pseudo/O.pbe-van_ak.UPF
     MD5 check sum: 4b8c549914a63cae506c6ff22b5af4fe
     Pseudo is Ultrasoft, Zval =  6.0
     Generated by new atomic code, or converted to UPF format
     Using radial grid of  737 points,  4 beta functions with: 
                l(1) =   0
                l(2) =   0
                l(3) =   1
                l(4) =   1
     Q(r) pseudized with  8 coefficients,  rinner =    0.800   0.800   0.800


     vdW kernel table read from file vdW_kernel_table
     MD5 check sum: 48e77a2e26edf626eeb0eaa751ad5cac

     atomic species   valence    mass     pseudopotential
        Au            11.00   196.96657     Au( 1.00)
        H              1.00     1.01000     H ( 1.00)
        O              6.00    16.00000     O ( 1.00)

     No symmetry found



   Cartesian axes

     site n.     atom                  positions (alat units)
         1           O   tau(   1) = (   0.4998324   0.3332216   0.7656616  )
         2           H   tau(   2) = (   0.4742046   0.2877277   0.7100386  )
         3           H   tau(   3) = (   0.5246755   0.2853639   0.8196144  )
         4           Au  tau(   4) = (   0.0000000   0.0000000   0.0000000  )
         5           Au  tau(   5) = (   0.3332217   0.0000000   0.0000000  )
         6           Au  tau(   6) = (   0.6664435   0.0000000   0.0000000  )
         7           Au  tau(   7) = (   0.1666109   0.1666109   0.0000000  )
         8           Au  tau(   8) = (   0.4998326   0.1666109   0.0000000  )
         9           Au  tau(   9) = (   0.8330542   0.1666109   0.0000000  )
        10           Au  tau(  10) = (   0.0000000   0.3332217   0.0000000  )
        11           Au  tau(  11) = (   0.3332217   0.3332217   0.0000000  )
        12           Au  tau(  12) = (   0.6664435   0.3332217   0.0000000  )
        13           Au  tau(  13) = (   0.1666109   0.4998326   0.0000000  )
        14           Au  tau(  14) = (   0.4998326   0.4998326   0.0000000  )
        15           Au  tau(  15) = (   0.8330542   0.4998326   0.0000000  )
        16           Au  tau(  16) = (   0.0000000   0.6664435   0.0000000  )
        17           Au  tau(  17) = (   0.3332217   0.6664435   0.0000000  )
        18           Au  tau(  18) = (   0.6664435   0.6664435   0.0000000  )
        19           Au  tau(  19) = (   0.1666109   0.8330542   0.0000000  )
        20           Au  tau(  20) = (   0.4998326   0.8330542   0.0000000  )
        21           Au  tau(  21) = (   0.8330542   0.8330542   0.0000000  )
        22           Au  tau(  22) = (   0.1666109   0.0000000   0.1666109  )
        23           Au  tau(  23) = (   0.4998326   0.0000000   0.1666109  )
        24           Au  tau(  24) = (   0.8330542   0.0000000   0.1666109  )
        25           Au  tau(  25) = (   0.0000000   0.1666109   0.1666109  )
        26           Au  tau(  26) = (   0.3332217   0.1666109   0.1666109  )
        27           Au  tau(  27) = (   0.6664435   0.1666109   0.1666109  )
        28           Au  tau(  28) = (   0.1666109   0.3332217   0.1666109  )
        29           Au  tau(  29) = (   0.4998326   0.3332217   0.1666109  )
        30           Au  tau(  30) = (   0.8330542   0.3332217   0.1666109  )
        31           Au  tau(  31) = (   0.0000000   0.4998326   0.1666109  )
        32           Au  tau(  32) = (   0.3332217   0.4998326   0.1666109  )
        33           Au  tau(  33) = (   0.6664435   0.4998326   0.1666109  )
        34           Au  tau(  34) = (   0.1666109   0.6664435   0.1666109  )
        35           Au  tau(  35) = (   0.4998326   0.6664435   0.1666109  )
        36           Au  tau(  36) = (   0.8330542   0.6664435   0.1666109  )
        37           Au  tau(  37) = (   0.0000000   0.8330542   0.1666109  )
        38           Au  tau(  38) = (   0.3332217   0.8330542   0.1666109  )
        39           Au  tau(  39) = (   0.6664435   0.8330542   0.1666109  )
        40           Au  tau(  40) = (  -0.0000182  -0.0000182   0.3335478  )
        41           Au  tau(  41) = (   0.3332215  -0.0000181   0.3335472  )
        42           Au  tau(  42) = (   0.6664447  -0.0000183   0.3335481  )
        43           Au  tau(  43) = (  -0.0000181   0.3332215   0.3335472  )
        44           Au  tau(  44) = (   0.3332215   0.3332215   0.3335468  )
        45           Au  tau(  45) = (   0.6664445   0.3332215   0.3335478  )
        46           Au  tau(  46) = (  -0.0000183   0.6664447   0.3335481  )
        47           Au  tau(  47) = (   0.3332215   0.6664445   0.3335478  )
        48           Au  tau(  48) = (   0.6664446   0.6664446   0.3335486  )
        49           Au  tau(  49) = (   0.1666097   0.1666097   0.3335483  )
        50           Au  tau(  50) = (   0.4998320   0.1666098   0.3335477  )
        51           Au  tau(  51) = (   0.8330732   0.1666096   0.3335481  )
        52           Au  tau(  52) = (   0.1666098   0.4998320   0.3335477  )
        53           Au  tau(  53) = (   0.4998321   0.4998321   0.3335470  )
        54           Au  tau(  54) = (   0.8330730   0.4998322   0.3335474  )
        55           Au  tau(  55) = (   0.1666096   0.8330732   0.3335481  )
        56           Au  tau(  56) = (   0.4998322   0.8330730   0.3335474  )
        57           Au  tau(  57) = (   0.8330731   0.8330731   0.3335478  )
        58           Au  tau(  58) = (   0.1666104  -0.0000111   0.4993095  )
        59           Au  tau(  59) = (   0.4998323  -0.0000112   0.4993099  )
        60           Au  tau(  60) = (   0.8330661  -0.0000111   0.4993009  )
        61           Au  tau(  61) = (  -0.0000111   0.1666104   0.4993095  )
        62           Au  tau(  62) = (   0.3332214   0.1666106   0.4993185  )
        63           Au  tau(  63) = (   0.6664437   0.1666106   0.4993187  )
        64           Au  tau(  64) = (   0.1666106   0.3332214   0.4993185  )
        65           Au  tau(  65) = (   0.4998324   0.3332216   0.4993185  )
        66           Au  tau(  66) = (   0.8330659   0.3332215   0.4993103  )
        67           Au  tau(  67) = (  -0.0000112   0.4998323   0.4993099  )
        68           Au  tau(  68) = (   0.3332216   0.4998324   0.4993185  )
        69           Au  tau(  69) = (   0.6664436   0.4998325   0.4993187  )
        70           Au  tau(  70) = (   0.1666106   0.6664437   0.4993187  )
        71           Au  tau(  71) = (   0.4998325   0.6664436   0.4993187  )
        72           Au  tau(  72) = (   0.8330658   0.6664438   0.4993102  )
        73           Au  tau(  73) = (  -0.0000111   0.8330661   0.4993009  )
        74           Au  tau(  74) = (   0.3332215   0.8330659   0.4993103  )
        75           Au  tau(  75) = (   0.6664438   0.8330658   0.4993102  )

     number of k points=     6  Marzari-Vanderbilt smearing, width (Ry)=  0.0200
                       cart. coord. in units 2pi/alat
        k(    1) = (   0.2500000   0.2500000   0.0833333), wk =   0.3333333
        k(    2) = (   0.2500000   0.2500000  -0.2500000), wk =   0.3333333
        k(    3) = (  -0.2500000  -0.2500000   0.0833333), wk =   0.3333333
        k(    4) = (  -0.2500000   0.2500000  -0.0833333), wk =   0.3333333
        k(    5) = (   0.2500000  -0.2500000  -0.0833333), wk =   0.3333333
        k(    6) = (  -0.2500000   0.2500000   0.2500000), wk =   0.3333333

     Dense  grid:  3792731 G-vectors     FFT dimensions: ( 160, 160, 320)

     Smooth grid:  1341081 G-vectors     FFT dimensions: ( 120, 120, 225)

     Largest allocated arrays     est. size (Mb)     dimensions
        Kohn-Sham Wavefunctions        38.58 Mb     (    5267,  480)
        NL pseudopotentials            76.03 Mb     (    5267,  946)
        Each V/rho on FFT grid          3.91 Mb     (  256000)
        Each G-vector array             0.90 Mb     (  118520)
        G-vector shells                 0.08 Mb     (   10286)
     Largest temporary arrays     est. size (Mb)     dimensions
        Auxiliary wavefunctions       154.31 Mb     (    5267, 1920)
        Each subspace H/S matrix       56.25 Mb     (    1920, 1920)
        Each <psi_i|beta_j> matrix      6.93 Mb     (     946,  480)
        Arrays for rho mixing          31.25 Mb     (  256000,    8)

     Initial potential from superposition of free atoms
     Check: negative starting charge=   -1.945070

     starting charge  799.16392, renormalised to  800.00000

     negative rho (up, down):  1.947E+00 0.000E+00


     ************************************************************************
     *
     * You are using vdW-DF for exchange-correlation in this calculation.
     * Please cite the following three references that made this development
     * possible:
     *
     *   M. Dion, H. Rydberg, E. Schroder, D. C. Langreth, and
     *   B. I. Lundqvist, Phys. Rev. Lett. 92, 246401 (2004).
     *
     *   T. Thonhauser, V. R. Cooper, S. Li, A. Puzder, P. Hyldgaard, and
     *   D. C. Langreth, Phys. Rev. B 76, 125112 (2007).
     *
     *   G. Roman-Perez and J. M. Soler, Phys. Rev. Lett. 103, 096102 (2009).
     *
     *
     * If you are using vdW-DF2, please also cite:
     *
     *   K. Lee, E. D. Murray, L. Kong, B. I. Lundqvist, and
     *   D. C. Langreth, Phys. Rev. B 82, 081101(R) (2010).
     *
     *
     * If you are calculating the stress with vdW-DF, please also cite:
     *
     *   R. Sabatini, E. Kucukbenli, B. Kolb, T. Thonhauser, and
     *   S. de Gironcoli, J. Phys.: Condens. Matter 24, 424209 (2012).
     *
     ************************************************************************

     Carrying out vdW-DF run using the following parameters:

     Nqs =      20    Nr_points =    1024   r_max =   100.000
     q_mesh =
               0.00001000     0.04494208     0.09755937     0.15916263
               0.23128650     0.31572767     0.41458969     0.53033537
               0.66584808     0.82450364     1.01025438     1.22772762
               1.48234092     1.78043706     2.12944203     2.53805004
               3.01644009     3.57652955     4.23227104     5.00000000

     Gradients computed in reciprocal space

     ************************************************************************


     Starting wfc are  654 randomized atomic wfcs

     total cpu time spent up to now is      102.8 secs

     Self-consistent Calculation

     iteration #  1     ecut=    50.00 Ry     beta=0.70
     Davidson diagonalization with overlap
     ethr =  1.00E-02,  avg # of iterations =  3.0

     Threshold (ethr) on eigenvalues was too large:
     Diagonalizing with lowered threshold

     Davidson diagonalization with overlap
     ethr =  4.24E-04,  avg # of iterations =  2.0

     negative rho (up, down):  1.947E+00 0.000E+00

     total cpu time spent up to now is      517.2 secs

     total energy              =   -7423.02846306 Ry
     Harris-Foulkes estimate   =   -7426.07602117 Ry
     estimated scf accuracy    <       3.76486653 Ry

     iteration #  2     ecut=    50.00 Ry     beta=0.70
     Davidson diagonalization with overlap
     ethr =  4.71E-04,  avg # of iterations = 11.3

     negative rho (up, down):  1.942E+00 0.000E+00

     total cpu time spent up to now is     1255.4 secs

     total energy              =   -7415.11607511 Ry
     Harris-Foulkes estimate   =   -7432.64963170 Ry
     estimated scf accuracy    <      91.33998658 Ry

     iteration #  3     ecut=    50.00 Ry     beta=0.70
     Davidson diagonalization with overlap
     ethr =  4.71E-04,  avg # of iterations =  6.0

     negative rho (up, down):  1.953E+00 0.000E+00

     total cpu time spent up to now is     1706.0 secs

     total energy              =   -7424.07293873 Ry
     Harris-Foulkes estimate   =   -7425.88494348 Ry
     estimated scf accuracy    <       7.67586616 Ry

     iteration #  4     ecut=    50.00 Ry     beta=0.70
     Davidson diagonalization with overlap
     ethr =  4.71E-04,  avg # of iterations =  5.7

     negative rho (up, down):  1.956E+00 0.000E+00

     total cpu time spent up to now is     1968.9 secs

     total energy              =   -7424.79702715 Ry
     Harris-Foulkes estimate   =   -7425.69162642 Ry
     estimated scf accuracy    <       5.05974486 Ry

     iteration #  5     ecut=    50.00 Ry     beta=0.70
     Davidson diagonalization with overlap
     ethr =  4.71E-04,  avg # of iterations =  6.5

     negative rho (up, down):  1.963E+00 0.000E+00

     total cpu time spent up to now is     2243.1 secs

     total energy              =   -7425.09483373 Ry
     Harris-Foulkes estimate   =   -7425.57138545 Ry
     estimated scf accuracy    <       3.58502237 Ry

     iteration #  6     ecut=    50.00 Ry     beta=0.70
     Davidson diagonalization with overlap
     ethr =  4.48E-04,  avg # of iterations =  4.0

     negative rho (up, down):  1.967E+00 0.000E+00

     total cpu time spent up to now is     2471.7 secs

     total energy              =   -7425.28201539 Ry
     Harris-Foulkes estimate   =   -7425.33203812 Ry
     estimated scf accuracy    <       0.16588652 Ry

     iteration #  7     ecut=    50.00 Ry     beta=0.70
     Davidson diagonalization with overlap
     ethr =  2.07E-05,  avg # of iterations =  9.8

     negative rho (up, down):  1.970E+00 0.000E+00

     total cpu time spent up to now is     2815.0 secs

     total energy              =   -7425.28192788 Ry
     Harris-Foulkes estimate   =   -7425.33033002 Ry
     estimated scf accuracy    <       0.25221479 Ry

     iteration #  8     ecut=    50.00 Ry     beta=0.70
     Davidson diagonalization with overlap
     ethr =  2.07E-05,  avg # of iterations =  3.0

     negative rho (up, down):  1.971E+00 0.000E+00

     total cpu time spent up to now is     3034.3 secs

     total energy              =   -7425.29218362 Ry
     Harris-Foulkes estimate   =   -7425.31018807 Ry
     estimated scf accuracy    <       0.07452771 Ry

     iteration #  9     ecut=    50.00 Ry     beta=0.70
     Davidson diagonalization with overlap
     ethr =  9.32E-06,  avg # of iterations =  4.7

     negative rho (up, down):  1.972E+00 0.000E+00

     total cpu time spent up to now is     3282.5 secs

     total energy              =   -7425.29225209 Ry
     Harris-Foulkes estimate   =   -7425.30277604 Ry
     estimated scf accuracy    <       0.03629633 Ry

     iteration # 10     ecut=    50.00 Ry     beta=0.70
     Davidson diagonalization with overlap
     ethr =  4.54E-06,  avg # of iterations =  6.3

     negative rho (up, down):  1.973E+00 0.000E+00

     total cpu time spent up to now is     3541.7 secs

     total energy              =   -7425.29312556 Ry
     Harris-Foulkes estimate   =   -7425.29658850 Ry
     estimated scf accuracy    <       0.01074414 Ry

     iteration # 11     ecut=    50.00 Ry     beta=0.70
     Davidson diagonalization with overlap
     ethr =  1.34E-06,  avg # of iterations =  9.7

     negative rho (up, down):  1.974E+00 0.000E+00

     total cpu time spent up to now is     3848.2 secs

     total energy              =   -7425.29329135 Ry
     Harris-Foulkes estimate   =   -7425.29471145 Ry
     estimated scf accuracy    <       0.00507812 Ry

     iteration # 12     ecut=    50.00 Ry     beta=0.70
     Davidson diagonalization with overlap
     ethr =  6.35E-07,  avg # of iterations =  3.0

     negative rho (up, down):  1.975E+00 0.000E+00

     total cpu time spent up to now is     4070.4 secs

     total energy              =   -7425.29259326 Ry
     Harris-Foulkes estimate   =   -7425.29377911 Ry
     estimated scf accuracy    <       0.00173927 Ry

     iteration # 13     ecut=    50.00 Ry     beta=0.70
     Davidson diagonalization with overlap
     ethr =  2.17E-07,  avg # of iterations =  8.5

     negative rho (up, down):  1.974E+00 0.000E+00

     total cpu time spent up to now is     4493.2 secs

     total energy              =   -7425.29190078 Ry
     Harris-Foulkes estimate   =   -7425.29438805 Ry
     estimated scf accuracy    <       0.01179263 Ry

     iteration # 14     ecut=    50.00 Ry     beta=0.70
     Davidson diagonalization with overlap
     ethr =  2.17E-07,  avg # of iterations =  3.0

     negative rho (up, down):  1.974E+00 0.000E+00

     total cpu time spent up to now is     4773.1 secs

     total energy              =   -7425.29297370 Ry
     Harris-Foulkes estimate   =   -7425.29330561 Ry
     estimated scf accuracy    <       0.00146879 Ry

     iteration # 15     ecut=    50.00 Ry     beta=0.70
     Davidson diagonalization with overlap
     ethr =  1.84E-07,  avg # of iterations =  2.0

     negative rho (up, down):  1.974E+00 0.000E+00

     total cpu time spent up to now is     4980.4 secs

     total energy              =   -7425.29311581 Ry
     Harris-Foulkes estimate   =   -7425.29319231 Ry
     estimated scf accuracy    <       0.00028508 Ry

     iteration # 16     ecut=    50.00 Ry     beta=0.70
     Davidson diagonalization with overlap
     ethr =  3.56E-08,  avg # of iterations =  2.0

     negative rho (up, down):  1.974E+00 0.000E+00

     total cpu time spent up to now is     5205.5 secs

     total energy              =   -7425.29306405 Ry
     Harris-Foulkes estimate   =   -7425.29327354 Ry
     estimated scf accuracy    <       0.00180326 Ry

     iteration # 17     ecut=    50.00 Ry     beta=0.70
     Davidson diagonalization with overlap
     ethr =  3.56E-08,  avg # of iterations =  2.0

     negative rho (up, down):  1.974E+00 0.000E+00

     total cpu time spent up to now is     5420.0 secs

     total energy              =   -7425.29316442 Ry
     Harris-Foulkes estimate   =   -7425.29317519 Ry
     estimated scf accuracy    <       0.00003340 Ry

     iteration # 18     ecut=    50.00 Ry     beta=0.70
     Davidson diagonalization with overlap
     ethr =  4.17E-09,  avg # of iterations =  2.0

     negative rho (up, down):  1.974E+00 0.000E+00

     total cpu time spent up to now is     5642.2 secs

     total energy              =   -7425.29316939 Ry
     Harris-Foulkes estimate   =   -7425.29317257 Ry
     estimated scf accuracy    <       0.00001234 Ry

     iteration # 19     ecut=    50.00 Ry     beta=0.70
     Davidson diagonalization with overlap
     ethr =  1.54E-09,  avg # of iterations =  2.0

     negative rho (up, down):  1.974E+00 0.000E+00

     total cpu time spent up to now is     5849.2 secs

     total energy              =   -7425.29317012 Ry
     Harris-Foulkes estimate   =   -7425.29317238 Ry
     estimated scf accuracy    <       0.00001025 Ry

     iteration # 20     ecut=    50.00 Ry     beta=0.70
     Davidson diagonalization with overlap
     ethr =  1.28E-09,  avg # of iterations =  2.0

     negative rho (up, down):  1.974E+00 0.000E+00

     total cpu time spent up to now is     6056.3 secs

     total energy              =   -7425.29317131 Ry
     Harris-Foulkes estimate   =   -7425.29317181 Ry
     estimated scf accuracy    <       0.00000261 Ry

     iteration # 21     ecut=    50.00 Ry     beta=0.70
     Davidson diagonalization with overlap
     ethr =  3.26E-10,  avg # of iterations =  2.0

     negative rho (up, down):  1.974E+00 0.000E+00

     total cpu time spent up to now is     6265.9 secs

     total energy              =   -7425.29317160 Ry
     Harris-Foulkes estimate   =   -7425.29317178 Ry
     estimated scf accuracy    <       0.00000087 Ry

     iteration # 22     ecut=    50.00 Ry     beta=0.70
     Davidson diagonalization with overlap
     ethr =  1.08E-10,  avg # of iterations =  2.7

     negative rho (up, down):  1.974E+00 0.000E+00

     total cpu time spent up to now is     6483.4 secs

     total energy              =   -7425.29317173 Ry
     Harris-Foulkes estimate   =   -7425.29317181 Ry
     estimated scf accuracy    <       0.00000036 Ry

     iteration # 23     ecut=    50.00 Ry     beta=0.70
     Davidson diagonalization with overlap
     ethr =  4.49E-11,  avg # of iterations =  3.0

     negative rho (up, down):  1.974E+00 0.000E+00

     total cpu time spent up to now is     6711.2 secs

     total energy              =   -7425.29317176 Ry
     Harris-Foulkes estimate   =   -7425.29317181 Ry
     estimated scf accuracy    <       0.00000015 Ry

     iteration # 24     ecut=    50.00 Ry     beta=0.70
     Davidson diagonalization with overlap
     ethr =  1.82E-11,  avg # of iterations =  2.0

     negative rho (up, down):  1.974E+00 0.000E+00

     total cpu time spent up to now is     6931.2 secs

     total energy              =   -7425.29317178 Ry
     Harris-Foulkes estimate   =   -7425.29317180 Ry
     estimated scf accuracy    <       0.00000018 Ry

     iteration # 25     ecut=    50.00 Ry     beta=0.70
     Davidson diagonalization with overlap
     ethr =  1.82E-11,  avg # of iterations =  2.0

     negative rho (up, down):  1.974E+00 0.000E+00

     total cpu time spent up to now is     7134.6 secs

     total energy              =   -7425.29317180 Ry
     Harris-Foulkes estimate   =   -7425.29317181 Ry
     estimated scf accuracy    <       0.00000009 Ry

     iteration # 26     ecut=    50.00 Ry     beta=0.70
     Davidson diagonalization with overlap
     ethr =  1.15E-11,  avg # of iterations =  2.0

     negative rho (up, down):  1.974E+00 0.000E+00

     total cpu time spent up to now is     7337.0 secs

     total energy              =   -7425.29317182 Ry
     Harris-Foulkes estimate   =   -7425.29317182 Ry
     estimated scf accuracy    <       0.00000003 Ry

     iteration # 27     ecut=    50.00 Ry     beta=0.70
     Davidson diagonalization with overlap
     ethr =  4.34E-12,  avg # of iterations =  2.0

     negative rho (up, down):  1.974E+00 0.000E+00

     total cpu time spent up to now is     7535.9 secs

     total energy              =   -7425.29317182 Ry
     Harris-Foulkes estimate   =   -7425.29317183 Ry
     estimated scf accuracy    <       0.00000008 Ry

     iteration # 28     ecut=    50.00 Ry     beta=0.70
     Davidson diagonalization with overlap
     ethr =  4.34E-12,  avg # of iterations =  2.0

     negative rho (up, down):  1.974E+00 0.000E+00

     total cpu time spent up to now is     7742.4 secs

     End of self-consistent calculation

          k = 0.2500 0.2500 0.0833 (167653 PWs)   bands (ev):

   -19.3201  -7.1727  -6.8372  -6.3092  -6.3088  -5.8796  -5.4705  -5.3776
    -5.3770  -5.1814  -5.1812  -5.0640  -5.0629  -4.9850  -4.9619  -4.8890
    -4.8041  -4.8003  -4.7615  -4.7612  -4.6006  -4.5838  -4.5829  -4.5823
    -4.5755  -4.5198  -4.5197  -4.5081  -4.5075  -4.4709  -4.4586  -4.4577
    -4.4161  -4.4159  -4.3826  -4.3814  -4.3300  -4.3289  -4.3186  -4.3174
    -4.3120  -4.2988  -4.2987  -4.2577  -4.2396  -4.2393  -4.2324  -4.2322
    -4.2002  -4.1506  -4.1354  -4.1348  -4.1322  -4.1308  -4.1233  -4.1178
    -4.1176  -4.1171  -4.0532  -4.0516  -4.0028  -4.0018  -3.9899  -3.9642
    -3.9636  -3.9444  -3.9412  -3.9406  -3.9365  -3.9336  -3.8847  -3.8844
    -3.8718  -3.8711  -3.7667  -3.7657  -3.7610  -3.7594  -3.7225  -3.7141
    -3.6991  -3.6695  -3.6692  -3.6408  -3.6401  -3.6196  -3.6185  -3.6056
    -3.6045  -3.5504  -3.5498  -3.5327  -3.5159  -3.5053  -3.5034  -3.5029
    -3.5021  -3.4756  -3.4743  -3.4388  -3.4379  -3.4172  -3.4158  -3.3862
    -3.3825  -3.3658  -3.3632  -3.3363  -3.3354  -3.2994  -3.2988  -3.2630
    -3.2559  -3.2552  -3.2411  -3.2403  -3.2362  -3.2359  -3.1979  -3.1873
    -3.1468  -3.1466  -3.1386  -3.1291  -3.1286  -3.1271  -3.1027  -3.1027
    -3.0818  -3.0813  -3.0804  -3.0540  -3.0538  -3.0463  -3.0436  -3.0431
    -3.0073  -3.0034  -2.9681  -2.9672  -2.9668  -2.9640  -2.9635  -2.8844
    -2.8746  -2.8707  -2.8696  -2.8690  -2.8682  -2.8644  -2.8633  -2.8629
    -2.8626  -2.8533  -2.8455  -2.8289  -2.8259  -2.8255  -2.8247  -2.8104
    -2.8058  -2.7678  -2.7671  -2.7666  -2.7629  -2.7620  -2.7443  -2.7437
    -2.7353  -2.7350  -2.7327  -2.6736  -2.6733  -2.6679  -2.6678  -2.6631
    -2.6626  -2.6348  -2.5756  -2.5746  -2.5740  -2.5719  -2.5606  -2.5586
    -2.5540  -2.5433  -2.5424  -2.5069  -2.5050  -2.4975  -2.4968  -2.4957
    -2.4954  -2.4566  -2.4559  -2.4464  -2.4460  -2.4447  -2.4441  -2.4024
    -2.3868  -2.3813  -2.3278  -2.3270  -2.3095  -2.3076  -2.3022  -2.3017
    -2.2541  -2.2524  -2.2295  -2.2139  -2.1995  -2.1986  -2.1977  -2.1763
    -2.1757  -2.1663  -2.1502  -2.1103  -2.1083  -2.0961  -2.0943  -2.0935
    -2.0837  -2.0828  -2.0693  -2.0673  -2.0670  -2.0629  -2.0590  -2.0577
    -2.0568  -2.0459  -2.0449  -2.0279  -2.0270  -2.0252  -2.0191  -2.0163
    -2.0155  -1.9926  -1.9917  -1.9810  -1.9788  -1.9749  -1.9733  -1.9357
    -1.9024  -1.9012  -1.8660  -1.8492  -1.8486  -1.8395  -1.8371  -1.8155
    -1.8139  -1.8012  -1.7988  -1.7979  -1.7973  -1.7958  -1.7937  -1.7626
    -1.7616  -1.7613  -1.7167  -1.7152  -1.6764  -1.6754  -1.6296  -1.6281
    -1.6165  -1.5932  -1.5901  -1.5856  -1.5722  -1.5680  -1.5536  -1.5496
    -1.5480  -1.5444  -1.5440  -1.5427  -1.5425  -1.5401  -1.5214  -1.5196
    -1.5116  -1.4919  -1.4742  -1.4732  -1.4547  -1.4476  -1.4457  -1.4430
    -1.4426  -1.4373  -1.4235  -1.4150  -1.4070  -1.3994  -1.3889  -1.3772
    -1.3679  -1.3629  -1.3414  -1.3324  -1.3315  -1.3242  -1.3134  -1.2886
    -1.2854  -1.2796  -1.2774  -1.2711  -1.2662  -1.2499  -1.2488  -1.2376
    -1.2306  -1.2292  -1.2182  -1.2168  -1.2161  -1.2111  -1.2022  -1.1917
    -1.1903  -1.1836  -1.1833  -1.1704  -1.1668  -1.1625  -1.1601  -1.1206
    -1.1178  -1.1133  -1.1112  -1.1109  -1.1094  -1.0715  -1.0548  -1.0538
    -1.0535  -1.0523  -1.0489  -1.0464  -1.0441  -1.0302  -1.0289  -0.9920
    -0.9918  -0.9850  -0.9847  -0.9624  -0.9618  -0.9522  -0.9226  -0.9148
    -0.8879  -0.8868  -0.8595  -0.8593  -0.8562  -0.8554  -0.8544  -0.8503
    -0.8457  -0.8451  -0.8410  -0.8401  -0.8086  -0.8081  -0.7897  -0.7881
    -0.7854  -0.7841  -0.7826  -0.7812  -0.7641  -0.4882  -0.4782  -0.4209
    -0.4196  -0.3827  -0.2221  -0.1573  -0.1563  -0.1236   0.1624   0.1630
     0.4926   0.4942   0.5909   0.5916   0.6318   0.6334   0.7758   0.7776
     0.9000   0.9021   0.9906   1.5874   1.6052   1.6064   1.6451   1.6507
     1.6943   1.6992   1.7751   1.7768   1.9822   1.9836   2.2186   2.2969
     2.2999   2.3142   2.6935   2.6983   2.7684   2.7687   2.7756   2.7766
     2.9265   2.9283   2.9768   3.0690   3.0735   3.3021   3.3037   3.4373
     3.4639   3.4659   3.7347   3.7375   3.8497   3.8679   3.8687   3.9258
     3.9530   4.0537   4.0564   4.2906   4.2928   4.3792   4.3834   4.5049
     4.5072   4.5266   4.5329   4.6735   5.0137   5.3338   5.3421   5.4315
     5.4382   5.5057   5.6140   5.6177   5.6531   5.6985   5.7294   5.7328
     5.7440   5.7827   5.7862   5.8291   5.9954   6.0727   6.0973   6.1008
     6.1151   6.1254   6.1288   6.1336   6.1372   6.1395   6.1794   6.2090

          k = 0.2500 0.2500-0.2500 (167588 PWs)   bands (ev):

   -19.3201  -7.1727  -6.8372  -6.3092  -6.3088  -5.8796  -5.4705  -5.3776
    -5.3770  -5.1814  -5.1812  -5.0640  -5.0629  -4.9850  -4.9619  -4.8890
    -4.8041  -4.8003  -4.7615  -4.7612  -4.6006  -4.5838  -4.5829  -4.5823
    -4.5755  -4.5198  -4.5197  -4.5081  -4.5075  -4.4709  -4.4586  -4.4577
    -4.4161  -4.4159  -4.3826  -4.3814  -4.3300  -4.3289  -4.3186  -4.3174
    -4.3120  -4.2988  -4.2987  -4.2577  -4.2396  -4.2393  -4.2324  -4.2322
    -4.2002  -4.1506  -4.1354  -4.1348  -4.1322  -4.1308  -4.1233  -4.1178
    -4.1176  -4.1171  -4.0532  -4.0516  -4.0028  -4.0018  -3.9899  -3.9642
    -3.9636  -3.9444  -3.9412  -3.9406  -3.9365  -3.9337  -3.8847  -3.8844
    -3.8718  -3.8711  -3.7667  -3.7657  -3.7610  -3.7594  -3.7225  -3.7141
    -3.6991  -3.6695  -3.6692  -3.6408  -3.6401  -3.6196  -3.6185  -3.6056
    -3.6045  -3.5504  -3.5498  -3.5327  -3.5159  -3.5053  -3.5034  -3.5029
    -3.5021  -3.4756  -3.4743  -3.4388  -3.4379  -3.4172  -3.4158  -3.3862
    -3.3825  -3.3658  -3.3632  -3.3363  -3.3354  -3.2994  -3.2988  -3.2630
    -3.2559  -3.2552  -3.2411  -3.2402  -3.2362  -3.2359  -3.1979  -3.1873
    -3.1468  -3.1466  -3.1386  -3.1291  -3.1286  -3.1271  -3.1028  -3.1027
    -3.0818  -3.0813  -3.0804  -3.0540  -3.0538  -3.0463  -3.0436  -3.0431
    -3.0073  -3.0034  -2.9681  -2.9672  -2.9668  -2.9640  -2.9635  -2.8845
    -2.8746  -2.8707  -2.8696  -2.8690  -2.8682  -2.8644  -2.8633  -2.8629
    -2.8626  -2.8533  -2.8455  -2.8289  -2.8259  -2.8255  -2.8247  -2.8104
    -2.8058  -2.7678  -2.7671  -2.7666  -2.7629  -2.7620  -2.7443  -2.7437
    -2.7353  -2.7350  -2.7327  -2.6736  -2.6733  -2.6679  -2.6678  -2.6631
    -2.6626  -2.6348  -2.5756  -2.5746  -2.5740  -2.5719  -2.5606  -2.5586
    -2.5540  -2.5433  -2.5424  -2.5069  -2.5050  -2.4975  -2.4968  -2.4957
    -2.4954  -2.4566  -2.4559  -2.4464  -2.4460  -2.4447  -2.4441  -2.4024
    -2.3868  -2.3813  -2.3278  -2.3270  -2.3095  -2.3076  -2.3022  -2.3017
    -2.2541  -2.2524  -2.2295  -2.2140  -2.1995  -2.1986  -2.1977  -2.1763
    -2.1757  -2.1663  -2.1502  -2.1103  -2.1083  -2.0961  -2.0943  -2.0935
    -2.0837  -2.0827  -2.0693  -2.0673  -2.0670  -2.0629  -2.0590  -2.0577
    -2.0568  -2.0459  -2.0449  -2.0279  -2.0270  -2.0252  -2.0191  -2.0163
    -2.0155  -1.9926  -1.9917  -1.9810  -1.9788  -1.9749  -1.9733  -1.9357
    -1.9024  -1.9012  -1.8660  -1.8492  -1.8486  -1.8395  -1.8371  -1.8155
    -1.8139  -1.8012  -1.7988  -1.7979  -1.7973  -1.7958  -1.7936  -1.7626
    -1.7616  -1.7613  -1.7167  -1.7152  -1.6764  -1.6754  -1.6296  -1.6281
    -1.6165  -1.5932  -1.5901  -1.5856  -1.5722  -1.5680  -1.5536  -1.5496
    -1.5480  -1.5444  -1.5440  -1.5427  -1.5425  -1.5401  -1.5214  -1.5196
    -1.5117  -1.4919  -1.4742  -1.4732  -1.4547  -1.4476  -1.4457  -1.4430
    -1.4426  -1.4373  -1.4235  -1.4150  -1.4070  -1.3994  -1.3889  -1.3772
    -1.3679  -1.3629  -1.3414  -1.3324  -1.3315  -1.3242  -1.3134  -1.2886
    -1.2854  -1.2796  -1.2774  -1.2711  -1.2662  -1.2499  -1.2488  -1.2376
    -1.2306  -1.2292  -1.2182  -1.2168  -1.2161  -1.2111  -1.2023  -1.1917
    -1.1903  -1.1836  -1.1833  -1.1704  -1.1668  -1.1625  -1.1601  -1.1206
    -1.1178  -1.1133  -1.1112  -1.1109  -1.1094  -1.0715  -1.0548  -1.0538
    -1.0535  -1.0523  -1.0489  -1.0464  -1.0441  -1.0302  -1.0289  -0.9920
    -0.9918  -0.9850  -0.9848  -0.9624  -0.9618  -0.9522  -0.9226  -0.9148
    -0.8879  -0.8868  -0.8595  -0.8593  -0.8562  -0.8554  -0.8544  -0.8503
    -0.8457  -0.8451  -0.8410  -0.8401  -0.8086  -0.8081  -0.7897  -0.7881
    -0.7854  -0.7841  -0.7826  -0.7812  -0.7641  -0.4882  -0.4782  -0.4209
    -0.4196  -0.3827  -0.2221  -0.1573  -0.1563  -0.1236   0.1624   0.1630
     0.4926   0.4942   0.5909   0.5916   0.6318   0.6334   0.7758   0.7776
     0.9000   0.9021   0.9906   1.5874   1.6052   1.6064   1.6451   1.6507
     1.6944   1.6992   1.7751   1.7768   1.9822   1.9836   2.2186   2.2969
     2.2999   2.3142   2.6935   2.6983   2.7684   2.7687   2.7756   2.7766
     2.9265   2.9283   2.9768   3.0691   3.0735   3.3021   3.3037   3.4373
     3.4639   3.4659   3.7347   3.7375   3.8497   3.8679   3.8687   3.9259
     3.9531   4.0537   4.0564   4.2906   4.2928   4.3792   4.3834   4.5049
     4.5072   4.5266   4.5329   4.6737   5.0078   5.3320   5.3397   5.4308
     5.4376   5.4998   5.6144   5.6178   5.6715   5.7146   5.7316   5.7346
     5.7505   5.7829   5.7861   5.8289   6.0353   6.0676   6.0869   6.1021
     6.1149   6.1234   6.1289   6.1312   6.1372   6.1385   6.1941   6.2125

          k =-0.2500-0.2500 0.0833 (167653 PWs)   bands (ev):

   -19.3201  -7.1727  -6.8372  -6.3092  -6.3088  -5.8796  -5.4705  -5.3776
    -5.3770  -5.1814  -5.1812  -5.0640  -5.0629  -4.9850  -4.9619  -4.8890
    -4.8041  -4.8003  -4.7615  -4.7612  -4.6006  -4.5838  -4.5829  -4.5823
    -4.5755  -4.5198  -4.5197  -4.5081  -4.5075  -4.4709  -4.4586  -4.4577
    -4.4161  -4.4159  -4.3826  -4.3814  -4.3300  -4.3289  -4.3186  -4.3174
    -4.3120  -4.2988  -4.2987  -4.2577  -4.2396  -4.2393  -4.2324  -4.2322
    -4.2002  -4.1506  -4.1354  -4.1348  -4.1322  -4.1308  -4.1233  -4.1178
    -4.1176  -4.1171  -4.0532  -4.0516  -4.0028  -4.0018  -3.9899  -3.9642
    -3.9636  -3.9444  -3.9412  -3.9406  -3.9365  -3.9336  -3.8847  -3.8844
    -3.8718  -3.8711  -3.7667  -3.7657  -3.7610  -3.7594  -3.7225  -3.7141
    -3.6991  -3.6695  -3.6692  -3.6408  -3.6401  -3.6196  -3.6185  -3.6056
    -3.6045  -3.5504  -3.5498  -3.5327  -3.5159  -3.5053  -3.5034  -3.5029
    -3.5021  -3.4756  -3.4743  -3.4388  -3.4379  -3.4172  -3.4158  -3.3862
    -3.3825  -3.3658  -3.3632  -3.3363  -3.3354  -3.2994  -3.2988  -3.2630
    -3.2559  -3.2552  -3.2411  -3.2403  -3.2362  -3.2359  -3.1979  -3.1873
    -3.1468  -3.1466  -3.1386  -3.1291  -3.1286  -3.1271  -3.1027  -3.1027
    -3.0818  -3.0813  -3.0804  -3.0540  -3.0538  -3.0463  -3.0436  -3.0431
    -3.0073  -3.0034  -2.9681  -2.9672  -2.9668  -2.9640  -2.9635  -2.8844
    -2.8746  -2.8707  -2.8696  -2.8690  -2.8682  -2.8644  -2.8633  -2.8629
    -2.8626  -2.8533  -2.8455  -2.8289  -2.8259  -2.8255  -2.8247  -2.8104
    -2.8058  -2.7678  -2.7671  -2.7666  -2.7629  -2.7620  -2.7443  -2.7437
    -2.7353  -2.7350  -2.7327  -2.6736  -2.6733  -2.6679  -2.6678  -2.6631
    -2.6626  -2.6348  -2.5756  -2.5746  -2.5740  -2.5719  -2.5606  -2.5586
    -2.5540  -2.5433  -2.5424  -2.5069  -2.5050  -2.4975  -2.4968  -2.4957
    -2.4954  -2.4566  -2.4559  -2.4464  -2.4460  -2.4447  -2.4441  -2.4024
    -2.3868  -2.3813  -2.3278  -2.3270  -2.3095  -2.3076  -2.3022  -2.3017
    -2.2541  -2.2524  -2.2295  -2.2139  -2.1995  -2.1986  -2.1977  -2.1763
    -2.1757  -2.1663  -2.1502  -2.1103  -2.1083  -2.0961  -2.0943  -2.0935
    -2.0837  -2.0828  -2.0693  -2.0673  -2.0670  -2.0629  -2.0590  -2.0577
    -2.0568  -2.0459  -2.0449  -2.0279  -2.0270  -2.0252  -2.0191  -2.0163
    -2.0155  -1.9926  -1.9917  -1.9810  -1.9788  -1.9749  -1.9733  -1.9357
    -1.9024  -1.9012  -1.8660  -1.8492  -1.8486  -1.8395  -1.8371  -1.8155
    -1.8139  -1.8012  -1.7988  -1.7979  -1.7973  -1.7958  -1.7937  -1.7626
    -1.7616  -1.7613  -1.7167  -1.7152  -1.6764  -1.6754  -1.6296  -1.6281
    -1.6165  -1.5932  -1.5901  -1.5856  -1.5722  -1.5680  -1.5536  -1.5496
    -1.5480  -1.5444  -1.5440  -1.5427  -1.5425  -1.5401  -1.5214  -1.5196
    -1.5116  -1.4919  -1.4742  -1.4732  -1.4547  -1.4476  -1.4457  -1.4430
    -1.4426  -1.4373  -1.4235  -1.4150  -1.4070  -1.3994  -1.3889  -1.3772
    -1.3679  -1.3629  -1.3414  -1.3324  -1.3315  -1.3242  -1.3134  -1.2886
    -1.2854  -1.2796  -1.2774  -1.2711  -1.2662  -1.2499  -1.2488  -1.2376
    -1.2306  -1.2292  -1.2182  -1.2168  -1.2161  -1.2111  -1.2022  -1.1917
    -1.1903  -1.1836  -1.1833  -1.1704  -1.1668  -1.1625  -1.1601  -1.1206
    -1.1178  -1.1133  -1.1112  -1.1109  -1.1094  -1.0715  -1.0548  -1.0538
    -1.0535  -1.0523  -1.0489  -1.0464  -1.0441  -1.0302  -1.0289  -0.9920
    -0.9918  -0.9850  -0.9847  -0.9624  -0.9618  -0.9522  -0.9226  -0.9148
    -0.8879  -0.8868  -0.8595  -0.8593  -0.8562  -0.8554  -0.8544  -0.8503
    -0.8457  -0.8451  -0.8410  -0.8401  -0.8086  -0.8081  -0.7897  -0.7881
    -0.7854  -0.7841  -0.7826  -0.7812  -0.7641  -0.4882  -0.4782  -0.4209
    -0.4196  -0.3827  -0.2221  -0.1573  -0.1563  -0.1236   0.1624   0.1630
     0.4926   0.4942   0.5909   0.5916   0.6318   0.6334   0.7758   0.7776
     0.9000   0.9021   0.9906   1.5874   1.6052   1.6064   1.6451   1.6507
     1.6943   1.6992   1.7751   1.7768   1.9822   1.9836   2.2186   2.2969
     2.2999   2.3142   2.6935   2.6983   2.7684   2.7687   2.7756   2.7766
     2.9265   2.9283   2.9768   3.0690   3.0735   3.3021   3.3037   3.4373
     3.4639   3.4659   3.7347   3.7375   3.8498   3.8679   3.8687   3.9258
     3.9530   4.0537   4.0564   4.2906   4.2928   4.3792   4.3834   4.5049
     4.5072   4.5266   4.5329   4.6736   5.0134   5.3338   5.3434   5.4314
     5.4381   5.5002   5.6136   5.6177   5.6588   5.7016   5.7288   5.7329
     5.7443   5.7830   5.7862   5.8293   5.9972   6.0707   6.0951   6.1011
     6.1158   6.1259   6.1292   6.1325   6.1372   6.1392   6.1665   6.2067

          k =-0.2500 0.2500-0.0833 (167653 PWs)   bands (ev):

   -19.3201  -7.1727  -6.8372  -6.3094  -6.3086  -5.8795  -5.4705  -5.3777
    -5.3769  -5.1815  -5.1812  -5.0641  -5.0626  -4.9849  -4.9620  -4.8890
    -4.8041  -4.8003  -4.7616  -4.7611  -4.6006  -4.5838  -4.5829  -4.5822
    -4.5755  -4.5199  -4.5196  -4.5081  -4.5075  -4.4709  -4.4587  -4.4576
    -4.4161  -4.4159  -4.3826  -4.3814  -4.3300  -4.3288  -4.3187  -4.3174
    -4.3120  -4.2988  -4.2988  -4.2578  -4.2395  -4.2394  -4.2325  -4.2321
    -4.2003  -4.1507  -4.1355  -4.1348  -4.1318  -4.1308  -4.1233  -4.1178
    -4.1176  -4.1171  -4.0532  -4.0514  -4.0030  -4.0018  -3.9899  -3.9641
    -3.9636  -3.9442  -3.9411  -3.9407  -3.9367  -3.9336  -3.8847  -3.8845
    -3.8719  -3.8711  -3.7669  -3.7656  -3.7608  -3.7594  -3.7225  -3.7141
    -3.6991  -3.6697  -3.6691  -3.6408  -3.6401  -3.6195  -3.6184  -3.6059
    -3.6045  -3.5504  -3.5497  -3.5337  -3.5159  -3.5058  -3.5033  -3.5028
    -3.5018  -3.4752  -3.4742  -3.4394  -3.4379  -3.4172  -3.4151  -3.3864
    -3.3821  -3.3664  -3.3639  -3.3364  -3.3337  -3.2994  -3.2989  -3.2633
    -3.2559  -3.2552  -3.2414  -3.2406  -3.2362  -3.2359  -3.1978  -3.1873
    -3.1468  -3.1466  -3.1386  -3.1294  -3.1283  -3.1272  -3.1028  -3.1027
    -3.0819  -3.0812  -3.0803  -3.0539  -3.0537  -3.0463  -3.0435  -3.0431
    -3.0073  -3.0033  -2.9684  -2.9671  -2.9669  -2.9640  -2.9634  -2.8845
    -2.8746  -2.8706  -2.8697  -2.8690  -2.8681  -2.8642  -2.8636  -2.8629
    -2.8625  -2.8533  -2.8455  -2.8289  -2.8259  -2.8257  -2.8245  -2.8104
    -2.8057  -2.7679  -2.7669  -2.7668  -2.7630  -2.7619  -2.7443  -2.7437
    -2.7354  -2.7350  -2.7327  -2.6736  -2.6732  -2.6679  -2.6677  -2.6632
    -2.6625  -2.6347  -2.5757  -2.5746  -2.5740  -2.5719  -2.5607  -2.5586
    -2.5540  -2.5433  -2.5423  -2.5069  -2.5049  -2.4978  -2.4968  -2.4959
    -2.4951  -2.4569  -2.4558  -2.4465  -2.4460  -2.4448  -2.4440  -2.4024
    -2.3867  -2.3813  -2.3278  -2.3270  -2.3093  -2.3077  -2.3022  -2.3018
    -2.2541  -2.2522  -2.2296  -2.2138  -2.1996  -2.1986  -2.1977  -2.1763
    -2.1757  -2.1663  -2.1502  -2.1100  -2.1084  -2.0958  -2.0946  -2.0932
    -2.0839  -2.0826  -2.0693  -2.0674  -2.0667  -2.0630  -2.0592  -2.0577
    -2.0565  -2.0459  -2.0450  -2.0277  -2.0270  -2.0252  -2.0191  -2.0163
    -2.0155  -1.9927  -1.9918  -1.9810  -1.9788  -1.9748  -1.9733  -1.9357
    -1.9023  -1.9013  -1.8660  -1.8492  -1.8486  -1.8397  -1.8369  -1.8157
    -1.8138  -1.8014  -1.7986  -1.7977  -1.7974  -1.7959  -1.7937  -1.7627
    -1.7616  -1.7613  -1.7168  -1.7153  -1.6764  -1.6754  -1.6296  -1.6282
    -1.6164  -1.5933  -1.5902  -1.5856  -1.5725  -1.5680  -1.5542  -1.5494
    -1.5471  -1.5448  -1.5440  -1.5427  -1.5423  -1.5401  -1.5210  -1.5200
    -1.5117  -1.4919  -1.4742  -1.4729  -1.4565  -1.4466  -1.4460  -1.4431
    -1.4422  -1.4370  -1.4221  -1.4162  -1.4057  -1.4003  -1.3891  -1.3772
    -1.3678  -1.3627  -1.3421  -1.3331  -1.3310  -1.3244  -1.3132  -1.2879
    -1.2842  -1.2797  -1.2768  -1.2719  -1.2665  -1.2496  -1.2490  -1.2378
    -1.2304  -1.2296  -1.2181  -1.2170  -1.2165  -1.2115  -1.2025  -1.1915
    -1.1903  -1.1837  -1.1832  -1.1704  -1.1671  -1.1624  -1.1603  -1.1208
    -1.1173  -1.1130  -1.1113  -1.1109  -1.1095  -1.0716  -1.0554  -1.0538
    -1.0536  -1.0525  -1.0499  -1.0449  -1.0441  -1.0299  -1.0288  -0.9923
    -0.9916  -0.9851  -0.9847  -0.9624  -0.9617  -0.9522  -0.9227  -0.9149
    -0.8881  -0.8866  -0.8595  -0.8591  -0.8563  -0.8553  -0.8544  -0.8502
    -0.8457  -0.8451  -0.8411  -0.8399  -0.8086  -0.8080  -0.7914  -0.7871
    -0.7851  -0.7839  -0.7828  -0.7806  -0.7642  -0.4881  -0.4782  -0.4237
    -0.4166  -0.3827  -0.2218  -0.1572  -0.1563  -0.1240   0.1617   0.1636
     0.4906   0.4960   0.5910   0.5916   0.6313   0.6342   0.7754   0.7783
     0.9000   0.9019   0.9907   1.5870   1.6054   1.6063   1.6431   1.6507
     1.6909   1.7041   1.7755   1.7768   1.9822   1.9835   2.2179   2.2947
     2.3015   2.3142   2.6894   2.7014   2.7678   2.7698   2.7752   2.7769
     2.9272   2.9278   2.9760   3.0727   3.0732   3.3015   3.3073   3.4369
     3.4637   3.4656   3.7359   3.7371   3.8457   3.8680   3.8689   3.9223
     3.9584   4.0532   4.0570   4.2913   4.2927   4.3761   4.3853   4.5009
     4.5094   4.5209   4.5357   4.6736   5.0141   5.3277   5.3477   5.4337
     5.4394   5.5034   5.6162   5.6171   5.6571   5.7022   5.7262   5.7329
     5.7414   5.7853   5.7857   5.8310   5.9947   6.0797   6.0937   6.0996
     6.1164   6.1241   6.1260   6.1308   6.1358   6.1373   6.1743   6.2058

          k = 0.2500-0.2500-0.0833 (167653 PWs)   bands (ev):

   -19.3201  -7.1727  -6.8372  -6.3094  -6.3086  -5.8795  -5.4705  -5.3777
    -5.3769  -5.1815  -5.1812  -5.0641  -5.0626  -4.9849  -4.9620  -4.8890
    -4.8041  -4.8003  -4.7616  -4.7611  -4.6006  -4.5838  -4.5829  -4.5822
    -4.5755  -4.5199  -4.5196  -4.5081  -4.5075  -4.4709  -4.4587  -4.4576
    -4.4161  -4.4159  -4.3826  -4.3814  -4.3300  -4.3288  -4.3187  -4.3174
    -4.3120  -4.2988  -4.2988  -4.2578  -4.2395  -4.2394  -4.2325  -4.2321
    -4.2003  -4.1507  -4.1355  -4.1348  -4.1318  -4.1308  -4.1233  -4.1178
    -4.1176  -4.1171  -4.0532  -4.0514  -4.0030  -4.0018  -3.9899  -3.9641
    -3.9636  -3.9442  -3.9411  -3.9407  -3.9367  -3.9336  -3.8847  -3.8845
    -3.8719  -3.8711  -3.7669  -3.7656  -3.7608  -3.7594  -3.7225  -3.7141
    -3.6991  -3.6697  -3.6691  -3.6408  -3.6401  -3.6195  -3.6184  -3.6059
    -3.6045  -3.5504  -3.5497  -3.5337  -3.5159  -3.5058  -3.5033  -3.5028
    -3.5018  -3.4752  -3.4742  -3.4394  -3.4379  -3.4172  -3.4151  -3.3864
    -3.3821  -3.3663  -3.3639  -3.3364  -3.3337  -3.2994  -3.2989  -3.2633
    -3.2559  -3.2552  -3.2414  -3.2406  -3.2362  -3.2359  -3.1978  -3.1873
    -3.1468  -3.1466  -3.1386  -3.1294  -3.1283  -3.1272  -3.1028  -3.1027
    -3.0819  -3.0812  -3.0803  -3.0539  -3.0537  -3.0463  -3.0435  -3.0431
    -3.0073  -3.0033  -2.9684  -2.9671  -2.9669  -2.9640  -2.9634  -2.8845
    -2.8746  -2.8706  -2.8697  -2.8690  -2.8681  -2.8642  -2.8636  -2.8629
    -2.8625  -2.8533  -2.8455  -2.8289  -2.8259  -2.8257  -2.8245  -2.8104
    -2.8057  -2.7679  -2.7669  -2.7668  -2.7630  -2.7619  -2.7443  -2.7437
    -2.7354  -2.7350  -2.7327  -2.6736  -2.6732  -2.6679  -2.6677  -2.6632
    -2.6625  -2.6347  -2.5757  -2.5746  -2.5740  -2.5719  -2.5607  -2.5586
    -2.5540  -2.5433  -2.5423  -2.5069  -2.5049  -2.4978  -2.4968  -2.4959
    -2.4951  -2.4569  -2.4558  -2.4465  -2.4460  -2.4448  -2.4440  -2.4024
    -2.3867  -2.3813  -2.3278  -2.3270  -2.3093  -2.3077  -2.3022  -2.3018
    -2.2541  -2.2522  -2.2296  -2.2138  -2.1996  -2.1986  -2.1977  -2.1763
    -2.1757  -2.1663  -2.1502  -2.1100  -2.1084  -2.0958  -2.0946  -2.0932
    -2.0839  -2.0826  -2.0693  -2.0674  -2.0667  -2.0630  -2.0592  -2.0577
    -2.0565  -2.0459  -2.0450  -2.0277  -2.0270  -2.0252  -2.0191  -2.0163
    -2.0155  -1.9927  -1.9918  -1.9810  -1.9788  -1.9748  -1.9733  -1.9357
    -1.9023  -1.9013  -1.8660  -1.8492  -1.8486  -1.8397  -1.8369  -1.8157
    -1.8138  -1.8014  -1.7986  -1.7977  -1.7974  -1.7959  -1.7937  -1.7627
    -1.7616  -1.7613  -1.7168  -1.7153  -1.6764  -1.6754  -1.6296  -1.6282
    -1.6164  -1.5933  -1.5902  -1.5856  -1.5725  -1.5680  -1.5542  -1.5494
    -1.5471  -1.5448  -1.5440  -1.5427  -1.5423  -1.5401  -1.5210  -1.5200
    -1.5117  -1.4919  -1.4742  -1.4729  -1.4565  -1.4466  -1.4460  -1.4431
    -1.4422  -1.4370  -1.4221  -1.4162  -1.4057  -1.4003  -1.3891  -1.3772
    -1.3678  -1.3627  -1.3421  -1.3331  -1.3310  -1.3244  -1.3132  -1.2879
    -1.2842  -1.2797  -1.2768  -1.2719  -1.2665  -1.2496  -1.2490  -1.2378
    -1.2304  -1.2296  -1.2181  -1.2170  -1.2165  -1.2115  -1.2025  -1.1915
    -1.1903  -1.1837  -1.1832  -1.1704  -1.1671  -1.1624  -1.1603  -1.1208
    -1.1173  -1.1130  -1.1113  -1.1109  -1.1095  -1.0716  -1.0554  -1.0538
    -1.0536  -1.0525  -1.0499  -1.0449  -1.0441  -1.0299  -1.0288  -0.9923
    -0.9916  -0.9851  -0.9847  -0.9624  -0.9617  -0.9522  -0.9227  -0.9149
    -0.8881  -0.8866  -0.8595  -0.8591  -0.8563  -0.8553  -0.8544  -0.8502
    -0.8457  -0.8451  -0.8411  -0.8399  -0.8086  -0.8080  -0.7914  -0.7871
    -0.7851  -0.7839  -0.7828  -0.7806  -0.7642  -0.4881  -0.4782  -0.4237
    -0.4166  -0.3827  -0.2218  -0.1572  -0.1563  -0.1240   0.1617   0.1636
     0.4906   0.4960   0.5910   0.5916   0.6313   0.6342   0.7754   0.7783
     0.9000   0.9019   0.9907   1.5870   1.6054   1.6063   1.6431   1.6507
     1.6909   1.7041   1.7755   1.7768   1.9822   1.9835   2.2179   2.2947
     2.3015   2.3142   2.6894   2.7014   2.7678   2.7698   2.7752   2.7769
     2.9272   2.9278   2.9760   3.0727   3.0732   3.3015   3.3073   3.4369
     3.4637   3.4656   3.7359   3.7371   3.8457   3.8680   3.8689   3.9223
     3.9584   4.0532   4.0570   4.2913   4.2927   4.3761   4.3853   4.5009
     4.5094   4.5209   4.5357   4.6736   5.0142   5.3277   5.3471   5.4337
     5.4394   5.5050   5.6162   5.6171   5.6569   5.7006   5.7267   5.7322
     5.7402   5.7853   5.7857   5.8310   5.9946   6.0769   6.0944   6.0992
     6.1161   6.1244   6.1276   6.1308   6.1358   6.1373   6.1804   6.2129

          k =-0.2500 0.2500 0.2500 (167588 PWs)   bands (ev):

   -19.3201  -7.1727  -6.8372  -6.3094  -6.3086  -5.8796  -5.4705  -5.3777
    -5.3769  -5.1815  -5.1812  -5.0641  -5.0626  -4.9849  -4.9620  -4.8890
    -4.8041  -4.8003  -4.7616  -4.7611  -4.6006  -4.5838  -4.5829  -4.5822
    -4.5755  -4.5199  -4.5196  -4.5081  -4.5075  -4.4709  -4.4587  -4.4576
    -4.4161  -4.4159  -4.3826  -4.3814  -4.3300  -4.3288  -4.3187  -4.3174
    -4.3120  -4.2988  -4.2988  -4.2578  -4.2395  -4.2394  -4.2325  -4.2321
    -4.2003  -4.1507  -4.1355  -4.1348  -4.1318  -4.1308  -4.1233  -4.1178
    -4.1176  -4.1171  -4.0532  -4.0514  -4.0030  -4.0018  -3.9900  -3.9641
    -3.9636  -3.9442  -3.9411  -3.9407  -3.9367  -3.9336  -3.8847  -3.8845
    -3.8719  -3.8711  -3.7669  -3.7656  -3.7608  -3.7594  -3.7225  -3.7141
    -3.6991  -3.6697  -3.6691  -3.6408  -3.6401  -3.6195  -3.6184  -3.6058
    -3.6045  -3.5504  -3.5498  -3.5337  -3.5159  -3.5058  -3.5033  -3.5028
    -3.5018  -3.4752  -3.4742  -3.4394  -3.4379  -3.4172  -3.4151  -3.3864
    -3.3821  -3.3663  -3.3639  -3.3364  -3.3337  -3.2994  -3.2988  -3.2633
    -3.2559  -3.2552  -3.2414  -3.2405  -3.2362  -3.2358  -3.1978  -3.1874
    -3.1468  -3.1466  -3.1386  -3.1294  -3.1283  -3.1272  -3.1029  -3.1027
    -3.0819  -3.0812  -3.0803  -3.0539  -3.0537  -3.0463  -3.0435  -3.0431
    -3.0073  -3.0033  -2.9684  -2.9671  -2.9669  -2.9640  -2.9634  -2.8845
    -2.8746  -2.8706  -2.8696  -2.8690  -2.8681  -2.8642  -2.8636  -2.8629
    -2.8624  -2.8533  -2.8455  -2.8289  -2.8259  -2.8257  -2.8245  -2.8103
    -2.8057  -2.7679  -2.7669  -2.7667  -2.7630  -2.7619  -2.7443  -2.7437
    -2.7354  -2.7350  -2.7327  -2.6736  -2.6732  -2.6679  -2.6677  -2.6632
    -2.6625  -2.6347  -2.5757  -2.5746  -2.5740  -2.5719  -2.5607  -2.5586
    -2.5540  -2.5433  -2.5423  -2.5069  -2.5049  -2.4978  -2.4968  -2.4959
    -2.4951  -2.4569  -2.4559  -2.4465  -2.4460  -2.4448  -2.4440  -2.4024
    -2.3867  -2.3813  -2.3278  -2.3270  -2.3093  -2.3077  -2.3022  -2.3018
    -2.2541  -2.2522  -2.2296  -2.2138  -2.1996  -2.1986  -2.1977  -2.1763
    -2.1757  -2.1663  -2.1502  -2.1100  -2.1084  -2.0958  -2.0946  -2.0932
    -2.0839  -2.0826  -2.0694  -2.0674  -2.0667  -2.0630  -2.0592  -2.0577
    -2.0565  -2.0459  -2.0450  -2.0277  -2.0270  -2.0252  -2.0191  -2.0163
    -2.0155  -1.9927  -1.9918  -1.9810  -1.9788  -1.9748  -1.9733  -1.9357
    -1.9023  -1.9013  -1.8660  -1.8492  -1.8486  -1.8397  -1.8369  -1.8157
    -1.8138  -1.8014  -1.7986  -1.7977  -1.7974  -1.7959  -1.7937  -1.7627
    -1.7616  -1.7613  -1.7168  -1.7153  -1.6764  -1.6754  -1.6296  -1.6282
    -1.6164  -1.5933  -1.5903  -1.5856  -1.5725  -1.5680  -1.5542  -1.5494
    -1.5471  -1.5448  -1.5440  -1.5427  -1.5423  -1.5401  -1.5210  -1.5200
    -1.5117  -1.4919  -1.4742  -1.4729  -1.4565  -1.4466  -1.4460  -1.4431
    -1.4422  -1.4370  -1.4221  -1.4162  -1.4057  -1.4003  -1.3891  -1.3772
    -1.3678  -1.3627  -1.3421  -1.3331  -1.3310  -1.3244  -1.3132  -1.2878
    -1.2842  -1.2797  -1.2768  -1.2719  -1.2664  -1.2496  -1.2490  -1.2378
    -1.2304  -1.2296  -1.2181  -1.2170  -1.2165  -1.2115  -1.2025  -1.1915
    -1.1903  -1.1837  -1.1832  -1.1704  -1.1671  -1.1624  -1.1603  -1.1208
    -1.1173  -1.1130  -1.1113  -1.1109  -1.1095  -1.0716  -1.0554  -1.0538
    -1.0536  -1.0525  -1.0499  -1.0449  -1.0441  -1.0299  -1.0288  -0.9923
    -0.9916  -0.9851  -0.9847  -0.9624  -0.9617  -0.9522  -0.9227  -0.9149
    -0.8881  -0.8866  -0.8595  -0.8591  -0.8563  -0.8553  -0.8544  -0.8502
    -0.8457  -0.8451  -0.8411  -0.8399  -0.8086  -0.8080  -0.7914  -0.7871
    -0.7851  -0.7839  -0.7828  -0.7806  -0.7642  -0.4881  -0.4782  -0.4237
    -0.4166  -0.3827  -0.2218  -0.1572  -0.1563  -0.1240   0.1617   0.1636
     0.4905   0.4960   0.5910   0.5916   0.6313   0.6342   0.7755   0.7783
     0.9000   0.9019   0.9907   1.5870   1.6054   1.6063   1.6432   1.6507
     1.6909   1.7041   1.7755   1.7768   1.9822   1.9835   2.2179   2.2947
     2.3015   2.3142   2.6894   2.7014   2.7678   2.7698   2.7752   2.7769
     2.9272   2.9278   2.9760   3.0727   3.0732   3.3016   3.3073   3.4369
     3.4637   3.4656   3.7359   3.7371   3.8457   3.8680   3.8689   3.9224
     3.9585   4.0532   4.0570   4.2913   4.2926   4.3761   4.3853   4.5009
     4.5094   4.5209   4.5357   4.6737   5.0083   5.3250   5.3454   5.4333
     5.4386   5.5016   5.6166   5.6171   5.6712   5.7096   5.7277   5.7352
     5.7552   5.7854   5.7857   5.8309   6.0335   6.0592   6.0970   6.1043
     6.1117   6.1244   6.1299   6.1321   6.1367   6.1383   6.1892   6.2219

     the Fermi energy is     0.8509 ev

!    total energy              =   -7425.29317183 Ry
     Harris-Foulkes estimate   =   -7425.29317182 Ry
     estimated scf accuracy    <          3.1E-09 Ry

     The total energy is the sum of the following terms:

     one-electron contribution =  -48648.51153489 Ry
     hartree contribution      =   24874.69152304 Ry
     xc contribution           =   -3604.21160762 Ry
     ewald contribution        =   19952.74124446 Ry
     smearing contrib. (-TS)   =      -0.00279683 Ry

     convergence has been achieved in  28 iterations

     Writing output data file 3875583.save

     init_run     :     94.88s CPU    102.05s WALL (       1 calls)
     electrons    :   6815.18s CPU   7640.73s WALL (       1 calls)

     Called by init_run:
     wfcinit      :     70.39s CPU     76.51s WALL (       1 calls)
     potinit      :      5.57s CPU      6.15s WALL (       1 calls)

     Called by electrons:
     c_bands      :   5526.82s CPU   6270.42s WALL (      29 calls)
     sum_band     :    818.04s CPU    882.61s WALL (      29 calls)
     v_of_rho     :     95.56s CPU    106.56s WALL (      29 calls)
     newd         :    382.76s CPU    387.45s WALL (      29 calls)
     mix_rho      :      2.86s CPU      3.28s WALL (      29 calls)
     vdW_energy   :      9.23s CPU     10.32s WALL (      29 calls)
     vdW_ffts     :     44.73s CPU     49.93s WALL (      58 calls)
     vdW_v        :     12.04s CPU     12.93s WALL (      29 calls)

     Called by c_bands:
     init_us_2    :     14.29s CPU     14.65s WALL (     354 calls)
     cegterg      :   5463.28s CPU   6205.01s WALL (     174 calls)

     Called by *egterg:
     h_psi        :   2307.42s CPU   2621.64s WALL (     877 calls)
     s_psi        :    369.52s CPU    391.73s WALL (     877 calls)
     g_psi        :      4.63s CPU      4.64s WALL (     697 calls)
     cdiaghg      :   1569.51s CPU   1574.83s WALL (     865 calls)

     Called by h_psi:
     add_vuspsi   :    372.80s CPU    396.51s WALL (     877 calls)

     General routines
     calbec       :    538.48s CPU    540.52s WALL (    1051 calls)
     fft          :    119.51s CPU    129.11s WALL (    1914 calls)
     ffts         :      1.21s CPU      1.47s WALL (      58 calls)
     fftw         :   1736.46s CPU   2057.70s WALL (  466922 calls)
     interpolate  :      3.40s CPU      4.08s WALL (      58 calls)
     davcio       :      0.00s CPU      0.13s WALL (       6 calls)

     Parallel routines
     fft_scatter  :   1288.23s CPU   1535.04s WALL (  468894 calls)

     PWSCF        :     1h55m CPU        2h 9m WALL


   This run was terminated on:   3:34:47  25Jun2015            

=------------------------------------------------------------------------------=
   JOB DONE.
=------------------------------------------------------------------------------=
