Setting SGE environment for SCC

     Program PWSCF v.5.1.2 starts on 29Aug2015 at 22:32: 5 

     This program is part of the open-source Quantum ESPRESSO suite
     for quantum simulation of materials; please cite
         "P. Giannozzi et al., J. Phys.:Condens. Matter 21 395502 (2009);
          URL http://www.quantum-espresso.org", 
     in publications or presentations arising from this work. More details at
     http://www.quantum-espresso.org/quote

     Parallel version (MPI), running on    32 processors
     R & G space division:  proc/nbgrp/npool/nimage =      32
     Reading input from top.O1.Au62.d.3.8.phi.0.psi.90.in
Warning: card &IONS ignored
Warning: card / ignored
Warning: card &CELL ignored
Warning: card / ignored

     Current dimensions of program PWSCF are:
     Max number of different atomic species (ntypx) = 10
     Max number of k-points (npk) =  40000
     Max angular momentum in pseudopotentials (lmaxx) =  3

     IMPORTANT: XC functional enforced from input :
     Exchange-correlation      = VDW-DF ( 1  4  4  0 1 0)
     Any further DFT definition will be discarded
     Please, verify this is what you really want


     Subspace diagonalization in iterative solution of the eigenvalue problem:
     a serial algorithm will be used


     Parallelization info
     --------------------
     sticks:   dense  smooth     PW     G-vecs:    dense   smooth      PW
     Min         578     289     74               118518    41891    5486
     Max         579     290     75               118533    41932    5497
     Sum       18505    9265   2385              3792731  1341081  175711


     Title: 
     top.O1.Au62.d.3.8.phi.0.psi.90                                             


     bravais-lattice index     =            8
     lattice parameter (alat)  =      24.1233  a.u.
     unit-cell volume          =   28076.2361 (a.u.)^3
     number of atoms/cell      =           75
     number of atomic types    =            3
     number of electrons       =       800.00
     number of Kohn-Sham states=          480
     kinetic-energy cutoff     =      50.0000  Ry
     charge density cutoff     =     400.0000  Ry
     convergence threshold     =      1.0E-08
     mixing beta               =       0.7000
     number of iterations used =            8  plain     mixing
     Exchange-correlation      = VDW-DF ( 1  4  4  0 1 0)

     celldm(1)=  24.123277  celldm(2)=   1.000000  celldm(3)=   2.000000
     celldm(4)=   0.000000  celldm(5)=   0.000000  celldm(6)=   0.000000

     crystal axes: (cart. coord. in units of alat)
               a(1) = (   1.000000   0.000000   0.000000 )  
               a(2) = (   0.000000   1.000000   0.000000 )  
               a(3) = (   0.000000   0.000000   2.000000 )  

     reciprocal axes: (cart. coord. in units 2 pi/alat)
               b(1) = (  1.000000  0.000000  0.000000 )  
               b(2) = (  0.000000  1.000000  0.000000 )  
               b(3) = (  0.000000  0.000000  0.500000 )  


     PseudoPot. # 1 for Au read from file:
     /home/scc/andrejb/qe/pseudo/Au.pbe-nd-van.UPF
     MD5 check sum: 458681b50f36d87ef23c61b04bba420a
     Pseudo is Ultrasoft + core correction, Zval = 11.0
     Generated by new atomic code, or converted to UPF format
     Using radial grid of  985 points,  3 beta functions with: 
                l(1) =   1
                l(2) =   2
                l(3) =   2
     Q(r) pseudized with  8 coefficients,  rinner =    1.100   1.100   1.100
                                                       1.100   1.100

     PseudoPot. # 2 for H  read from file:
     /home/scc/andrejb/qe/pseudo/H.pbe-van_ak.UPF
     MD5 check sum: 403db7282739603aa925980fa9b8608d
     Pseudo is Ultrasoft, Zval =  1.0
     Generated by new atomic code, or converted to UPF format
     Using radial grid of  615 points,  1 beta functions with: 
                l(1) =   0
     Q(r) pseudized with  8 coefficients,  rinner =    0.800

     PseudoPot. # 3 for O  read from file:
     /home/scc/andrejb/qe/pseudo/O.pbe-van_ak.UPF
     MD5 check sum: 4b8c549914a63cae506c6ff22b5af4fe
     Pseudo is Ultrasoft, Zval =  6.0
     Generated by new atomic code, or converted to UPF format
     Using radial grid of  737 points,  4 beta functions with: 
                l(1) =   0
                l(2) =   0
                l(3) =   1
                l(4) =   1
     Q(r) pseudized with  8 coefficients,  rinner =    0.800   0.800   0.800


     vdW kernel table read from file vdW_kernel_table
     MD5 check sum: 48e77a2e26edf626eeb0eaa751ad5cac

     atomic species   valence    mass     pseudopotential
        Au            11.00   196.96657     Au( 1.00)
        H              1.00     1.01000     H ( 1.00)
        O              6.00    16.00000     O ( 1.00)

     No symmetry found



   Cartesian axes

     site n.     atom                  positions (alat units)
         1           O   tau(   1) = (   0.4998324   0.3332216   0.7969961  )
         2           H   tau(   2) = (   0.4527548   0.2877277   0.7578246  )
         3           H   tau(   3) = (   0.5454827   0.2853639   0.8349978  )
         4           Au  tau(   4) = (   0.0000000   0.0000000   0.0000000  )
         5           Au  tau(   5) = (   0.3332217   0.0000000   0.0000000  )
         6           Au  tau(   6) = (   0.6664434   0.0000000   0.0000000  )
         7           Au  tau(   7) = (   0.1666109   0.1666109   0.0000000  )
         8           Au  tau(   8) = (   0.4998326   0.1666109   0.0000000  )
         9           Au  tau(   9) = (   0.8330542   0.1666109   0.0000000  )
        10           Au  tau(  10) = (   0.0000000   0.3332217   0.0000000  )
        11           Au  tau(  11) = (   0.3332217   0.3332217   0.0000000  )
        12           Au  tau(  12) = (   0.6664434   0.3332217   0.0000000  )
        13           Au  tau(  13) = (   0.1666109   0.4998326   0.0000000  )
        14           Au  tau(  14) = (   0.4998326   0.4998326   0.0000000  )
        15           Au  tau(  15) = (   0.8330542   0.4998326   0.0000000  )
        16           Au  tau(  16) = (   0.0000000   0.6664434   0.0000000  )
        17           Au  tau(  17) = (   0.3332217   0.6664434   0.0000000  )
        18           Au  tau(  18) = (   0.6664434   0.6664434   0.0000000  )
        19           Au  tau(  19) = (   0.1666109   0.8330542   0.0000000  )
        20           Au  tau(  20) = (   0.4998326   0.8330542   0.0000000  )
        21           Au  tau(  21) = (   0.8330542   0.8330542   0.0000000  )
        22           Au  tau(  22) = (   0.1666109   0.0000000   0.1666109  )
        23           Au  tau(  23) = (   0.4998326   0.0000000   0.1666109  )
        24           Au  tau(  24) = (   0.8330542   0.0000000   0.1666109  )
        25           Au  tau(  25) = (   0.0000000   0.1666109   0.1666109  )
        26           Au  tau(  26) = (   0.3332217   0.1666109   0.1666109  )
        27           Au  tau(  27) = (   0.6664434   0.1666109   0.1666109  )
        28           Au  tau(  28) = (   0.1666109   0.3332217   0.1666109  )
        29           Au  tau(  29) = (   0.4998326   0.3332217   0.1666109  )
        30           Au  tau(  30) = (   0.8330542   0.3332217   0.1666109  )
        31           Au  tau(  31) = (   0.0000000   0.4998326   0.1666109  )
        32           Au  tau(  32) = (   0.3332217   0.4998326   0.1666109  )
        33           Au  tau(  33) = (   0.6664434   0.4998326   0.1666109  )
        34           Au  tau(  34) = (   0.1666109   0.6664434   0.1666109  )
        35           Au  tau(  35) = (   0.4998326   0.6664434   0.1666109  )
        36           Au  tau(  36) = (   0.8330542   0.6664434   0.1666109  )
        37           Au  tau(  37) = (   0.0000000   0.8330542   0.1666109  )
        38           Au  tau(  38) = (   0.3332217   0.8330542   0.1666109  )
        39           Au  tau(  39) = (   0.6664434   0.8330542   0.1666109  )
        40           Au  tau(  40) = (  -0.0000182  -0.0000182   0.3335478  )
        41           Au  tau(  41) = (   0.3332215  -0.0000181   0.3335473  )
        42           Au  tau(  42) = (   0.6664447  -0.0000183   0.3335481  )
        43           Au  tau(  43) = (  -0.0000181   0.3332215   0.3335473  )
        44           Au  tau(  44) = (   0.3332215   0.3332215   0.3335468  )
        45           Au  tau(  45) = (   0.6664445   0.3332215   0.3335477  )
        46           Au  tau(  46) = (  -0.0000183   0.6664447   0.3335481  )
        47           Au  tau(  47) = (   0.3332215   0.6664445   0.3335477  )
        48           Au  tau(  48) = (   0.6664446   0.6664446   0.3335486  )
        49           Au  tau(  49) = (   0.1666097   0.1666097   0.3335483  )
        50           Au  tau(  50) = (   0.4998320   0.1666098   0.3335477  )
        51           Au  tau(  51) = (   0.8330732   0.1666096   0.3335480  )
        52           Au  tau(  52) = (   0.1666098   0.4998320   0.3335477  )
        53           Au  tau(  53) = (   0.4998322   0.4998322   0.3335470  )
        54           Au  tau(  54) = (   0.8330731   0.4998322   0.3335474  )
        55           Au  tau(  55) = (   0.1666096   0.8330732   0.3335480  )
        56           Au  tau(  56) = (   0.4998322   0.8330731   0.3335474  )
        57           Au  tau(  57) = (   0.8330731   0.8330731   0.3335478  )
        58           Au  tau(  58) = (   0.1666104  -0.0000111   0.4993095  )
        59           Au  tau(  59) = (   0.4998323  -0.0000112   0.4993099  )
        60           Au  tau(  60) = (   0.8330660  -0.0000111   0.4993009  )
        61           Au  tau(  61) = (  -0.0000111   0.1666104   0.4993095  )
        62           Au  tau(  62) = (   0.3332213   0.1666106   0.4993185  )
        63           Au  tau(  63) = (   0.6664437   0.1666106   0.4993187  )
        64           Au  tau(  64) = (   0.1666106   0.3332213   0.4993185  )
        65           Au  tau(  65) = (   0.4998324   0.3332216   0.4993185  )
        66           Au  tau(  66) = (   0.8330658   0.3332215   0.4993102  )
        67           Au  tau(  67) = (  -0.0000112   0.4998323   0.4993099  )
        68           Au  tau(  68) = (   0.3332216   0.4998324   0.4993185  )
        69           Au  tau(  69) = (   0.6664437   0.4998325   0.4993187  )
        70           Au  tau(  70) = (   0.1666106   0.6664437   0.4993187  )
        71           Au  tau(  71) = (   0.4998325   0.6664437   0.4993187  )
        72           Au  tau(  72) = (   0.8330658   0.6664438   0.4993102  )
        73           Au  tau(  73) = (  -0.0000111   0.8330660   0.4993009  )
        74           Au  tau(  74) = (   0.3332215   0.8330658   0.4993102  )
        75           Au  tau(  75) = (   0.6664438   0.8330658   0.4993102  )

     number of k points=     6  Marzari-Vanderbilt smearing, width (Ry)=  0.0200
                       cart. coord. in units 2pi/alat
        k(    1) = (   0.2500000   0.2500000   0.0833333), wk =   0.3333333
        k(    2) = (   0.2500000   0.2500000  -0.2500000), wk =   0.3333333
        k(    3) = (  -0.2500000  -0.2500000   0.0833333), wk =   0.3333333
        k(    4) = (  -0.2500000   0.2500000  -0.0833333), wk =   0.3333333
        k(    5) = (   0.2500000  -0.2500000  -0.0833333), wk =   0.3333333
        k(    6) = (  -0.2500000   0.2500000   0.2500000), wk =   0.3333333

     Dense  grid:  3792731 G-vectors     FFT dimensions: ( 160, 160, 320)

     Smooth grid:  1341081 G-vectors     FFT dimensions: ( 120, 120, 225)

     Largest allocated arrays     est. size (Mb)     dimensions
        Kohn-Sham Wavefunctions        38.58 Mb     (    5267,  480)
        NL pseudopotentials            76.03 Mb     (    5267,  946)
        Each V/rho on FFT grid          3.91 Mb     (  256000)
        Each G-vector array             0.90 Mb     (  118520)
        G-vector shells                 0.08 Mb     (   10286)
     Largest temporary arrays     est. size (Mb)     dimensions
        Auxiliary wavefunctions       154.31 Mb     (    5267, 1920)
        Each subspace H/S matrix       56.25 Mb     (    1920, 1920)
        Each <psi_i|beta_j> matrix      6.93 Mb     (     946,  480)
        Arrays for rho mixing          31.25 Mb     (  256000,    8)

     Initial potential from superposition of free atoms
     Check: negative starting charge=   -1.945029

     starting charge  799.16392, renormalised to  800.00000

     negative rho (up, down):  1.947E+00 0.000E+00


     ************************************************************************
     *
     * You are using vdW-DF for exchange-correlation in this calculation.
     * Please cite the following three references that made this development
     * possible:
     *
     *   M. Dion, H. Rydberg, E. Schroder, D. C. Langreth, and
     *   B. I. Lundqvist, Phys. Rev. Lett. 92, 246401 (2004).
     *
     *   T. Thonhauser, V. R. Cooper, S. Li, A. Puzder, P. Hyldgaard, and
     *   D. C. Langreth, Phys. Rev. B 76, 125112 (2007).
     *
     *   G. Roman-Perez and J. M. Soler, Phys. Rev. Lett. 103, 096102 (2009).
     *
     *
     * If you are using vdW-DF2, please also cite:
     *
     *   K. Lee, E. D. Murray, L. Kong, B. I. Lundqvist, and
     *   D. C. Langreth, Phys. Rev. B 82, 081101(R) (2010).
     *
     *
     * If you are calculating the stress with vdW-DF, please also cite:
     *
     *   R. Sabatini, E. Kucukbenli, B. Kolb, T. Thonhauser, and
     *   S. de Gironcoli, J. Phys.: Condens. Matter 24, 424209 (2012).
     *
     ************************************************************************

     Carrying out vdW-DF run using the following parameters:

     Nqs =      20    Nr_points =    1024   r_max =   100.000
     q_mesh =
               0.00001000     0.04494208     0.09755937     0.15916263
               0.23128650     0.31572767     0.41458969     0.53033537
               0.66584808     0.82450364     1.01025438     1.22772762
               1.48234092     1.78043706     2.12944203     2.53805004
               3.01644009     3.57652955     4.23227104     5.00000000

     Gradients computed in reciprocal space

     ************************************************************************


     Starting wfc are  654 randomized atomic wfcs

     total cpu time spent up to now is      144.4 secs

     Self-consistent Calculation

     iteration #  1     ecut=    50.00 Ry     beta=0.70
     Davidson diagonalization with overlap
     ethr =  1.00E-02,  avg # of iterations =  3.0

     Threshold (ethr) on eigenvalues was too large:
     Diagonalizing with lowered threshold

     Davidson diagonalization with overlap
     ethr =  4.27E-04,  avg # of iterations =  2.3

     negative rho (up, down):  1.947E+00 0.000E+00

     total cpu time spent up to now is      657.0 secs

     total energy              =   -7423.01205377 Ry
     Harris-Foulkes estimate   =   -7426.08453594 Ry
     estimated scf accuracy    <       3.79308893 Ry

     iteration #  2     ecut=    50.00 Ry     beta=0.70
     Davidson diagonalization with overlap
     ethr =  4.74E-04,  avg # of iterations = 11.3

     negative rho (up, down):  1.942E+00 0.000E+00

     total cpu time spent up to now is     1500.8 secs

     total energy              =   -7414.94505901 Ry
     Harris-Foulkes estimate   =   -7432.71833974 Ry
     estimated scf accuracy    <      92.97261862 Ry

     iteration #  3     ecut=    50.00 Ry     beta=0.70
     Davidson diagonalization with overlap
     ethr =  4.74E-04,  avg # of iterations =  6.0

     negative rho (up, down):  1.953E+00 0.000E+00

     total cpu time spent up to now is     2127.8 secs

     total energy              =   -7424.04368506 Ry
     Harris-Foulkes estimate   =   -7425.90659486 Ry
     estimated scf accuracy    <       7.98264554 Ry

     iteration #  4     ecut=    50.00 Ry     beta=0.70
     Davidson diagonalization with overlap
     ethr =  4.74E-04,  avg # of iterations =  5.7

     negative rho (up, down):  1.955E+00 0.000E+00

     total cpu time spent up to now is     2511.9 secs

     total energy              =   -7424.74882548 Ry
     Harris-Foulkes estimate   =   -7425.72482758 Ry
     estimated scf accuracy    <       5.81019997 Ry

     iteration #  5     ecut=    50.00 Ry     beta=0.70
     Davidson diagonalization with overlap
     ethr =  4.74E-04,  avg # of iterations =  5.5

     negative rho (up, down):  1.963E+00 0.000E+00

     total cpu time spent up to now is     2883.5 secs

     total energy              =   -7425.11543756 Ry
     Harris-Foulkes estimate   =   -7425.55789492 Ry
     estimated scf accuracy    <       3.27446466 Ry

     iteration #  6     ecut=    50.00 Ry     beta=0.70
     Davidson diagonalization with overlap
     ethr =  4.09E-04,  avg # of iterations =  2.2

     negative rho (up, down):  1.968E+00 0.000E+00

     total cpu time spent up to now is     3149.5 secs

     total energy              =   -7425.28522647 Ry
     Harris-Foulkes estimate   =   -7425.32949288 Ry
     estimated scf accuracy    <       0.14067875 Ry

     iteration #  7     ecut=    50.00 Ry     beta=0.70
     Davidson diagonalization with overlap
     ethr =  1.76E-05,  avg # of iterations = 10.8

     negative rho (up, down):  1.970E+00 0.000E+00

     total cpu time spent up to now is     3585.8 secs

     total energy              =   -7425.28128752 Ry
     Harris-Foulkes estimate   =   -7425.33003266 Ry
     estimated scf accuracy    <       0.25212699 Ry

     iteration #  8     ecut=    50.00 Ry     beta=0.70
     Davidson diagonalization with overlap
     ethr =  1.76E-05,  avg # of iterations =  3.0

     negative rho (up, down):  1.971E+00 0.000E+00

     total cpu time spent up to now is     3899.0 secs

     total energy              =   -7425.29253477 Ry
     Harris-Foulkes estimate   =   -7425.30946104 Ry
     estimated scf accuracy    <       0.06834345 Ry

     iteration #  9     ecut=    50.00 Ry     beta=0.70
     Davidson diagonalization with overlap
     ethr =  8.54E-06,  avg # of iterations =  4.7

     negative rho (up, down):  1.972E+00 0.000E+00

     total cpu time spent up to now is     4195.7 secs

     total energy              =   -7425.29228559 Ry
     Harris-Foulkes estimate   =   -7425.30285369 Ry
     estimated scf accuracy    <       0.03672182 Ry

     iteration # 10     ecut=    50.00 Ry     beta=0.70
     Davidson diagonalization with overlap
     ethr =  4.59E-06,  avg # of iterations =  5.2

     negative rho (up, down):  1.973E+00 0.000E+00

     total cpu time spent up to now is     4536.4 secs

     total energy              =   -7425.29337502 Ry
     Harris-Foulkes estimate   =   -7425.29666315 Ry
     estimated scf accuracy    <       0.01027509 Ry

     iteration # 11     ecut=    50.00 Ry     beta=0.70
     Davidson diagonalization with overlap
     ethr =  1.28E-06,  avg # of iterations = 10.0

     negative rho (up, down):  1.974E+00 0.000E+00

     total cpu time spent up to now is     4915.8 secs

     total energy              =   -7425.29349411 Ry
     Harris-Foulkes estimate   =   -7425.29491071 Ry
     estimated scf accuracy    <       0.00526111 Ry

     iteration # 12     ecut=    50.00 Ry     beta=0.70
     Davidson diagonalization with overlap
     ethr =  6.58E-07,  avg # of iterations =  3.3

     negative rho (up, down):  1.975E+00 0.000E+00

     total cpu time spent up to now is     5197.8 secs

     total energy              =   -7425.29272575 Ry
     Harris-Foulkes estimate   =   -7425.29396835 Ry
     estimated scf accuracy    <       0.00178158 Ry

     iteration # 13     ecut=    50.00 Ry     beta=0.70
     Davidson diagonalization with overlap
     ethr =  2.23E-07,  avg # of iterations =  9.3

     negative rho (up, down):  1.974E+00 0.000E+00

     total cpu time spent up to now is     5769.5 secs

     total energy              =   -7425.29210756 Ry
     Harris-Foulkes estimate   =   -7425.29436836 Ry
     estimated scf accuracy    <       0.01043334 Ry

     iteration # 14     ecut=    50.00 Ry     beta=0.70
     Davidson diagonalization with overlap
     ethr =  2.23E-07,  avg # of iterations =  3.0

     negative rho (up, down):  1.974E+00 0.000E+00

     total cpu time spent up to now is     6170.5 secs

     total energy              =   -7425.29306912 Ry
     Harris-Foulkes estimate   =   -7425.29341380 Ry
     estimated scf accuracy    <       0.00153143 Ry

     iteration # 15     ecut=    50.00 Ry     beta=0.70
     Davidson diagonalization with overlap
     ethr =  1.91E-07,  avg # of iterations =  2.0

     negative rho (up, down):  1.974E+00 0.000E+00

     total cpu time spent up to now is     6462.9 secs

     total energy              =   -7425.29324429 Ry
     Harris-Foulkes estimate   =   -7425.29329237 Ry
     estimated scf accuracy    <       0.00020136 Ry

     iteration # 16     ecut=    50.00 Ry     beta=0.70
     Davidson diagonalization with overlap
     ethr =  2.52E-08,  avg # of iterations =  2.0

     negative rho (up, down):  1.974E+00 0.000E+00

     total cpu time spent up to now is     6736.7 secs

     total energy              =   -7425.29325458 Ry
     Harris-Foulkes estimate   =   -7425.29328662 Ry
     estimated scf accuracy    <       0.00012761 Ry

     iteration # 17     ecut=    50.00 Ry     beta=0.70
     Davidson diagonalization with overlap
     ethr =  1.60E-08,  avg # of iterations =  2.0

     negative rho (up, down):  1.974E+00 0.000E+00

     total cpu time spent up to now is     7008.9 secs

     total energy              =   -7425.29326082 Ry
     Harris-Foulkes estimate   =   -7425.29328663 Ry
     estimated scf accuracy    <       0.00019491 Ry

     iteration # 18     ecut=    50.00 Ry     beta=0.70
     Davidson diagonalization with overlap
     ethr =  1.60E-08,  avg # of iterations =  1.0

     negative rho (up, down):  1.974E+00 0.000E+00

     total cpu time spent up to now is     7245.2 secs

     total energy              =   -7425.29327362 Ry
     Harris-Foulkes estimate   =   -7425.29327608 Ry
     estimated scf accuracy    <       0.00001109 Ry

     iteration # 19     ecut=    50.00 Ry     beta=0.70
     Davidson diagonalization with overlap
     ethr =  1.39E-09,  avg # of iterations =  3.0

     negative rho (up, down):  1.974E+00 0.000E+00

     total cpu time spent up to now is     7540.6 secs

     total energy              =   -7425.29327495 Ry
     Harris-Foulkes estimate   =   -7425.29327543 Ry
     estimated scf accuracy    <       0.00000158 Ry

     iteration # 20     ecut=    50.00 Ry     beta=0.70
     Davidson diagonalization with overlap
     ethr =  1.97E-10,  avg # of iterations =  3.0

     negative rho (up, down):  1.974E+00 0.000E+00

     total cpu time spent up to now is     7899.9 secs

     total energy              =   -7425.29327503 Ry
     Harris-Foulkes estimate   =   -7425.29327583 Ry
     estimated scf accuracy    <       0.00000474 Ry

     iteration # 21     ecut=    50.00 Ry     beta=0.70
     Davidson diagonalization with overlap
     ethr =  1.97E-10,  avg # of iterations =  3.0

     negative rho (up, down):  1.974E+00 0.000E+00

     total cpu time spent up to now is     8175.2 secs

     total energy              =   -7425.29327556 Ry
     Harris-Foulkes estimate   =   -7425.29327559 Ry
     estimated scf accuracy    <       0.00000053 Ry

     iteration # 22     ecut=    50.00 Ry     beta=0.70
     Davidson diagonalization with overlap
     ethr =  6.59E-11,  avg # of iterations =  2.0

     negative rho (up, down):  1.974E+00 0.000E+00

     total cpu time spent up to now is     8475.5 secs

     total energy              =   -7425.29327560 Ry
     Harris-Foulkes estimate   =   -7425.29327567 Ry
     estimated scf accuracy    <       0.00000018 Ry

     iteration # 23     ecut=    50.00 Ry     beta=0.70
     Davidson diagonalization with overlap
     ethr =  2.19E-11,  avg # of iterations =  3.0

     negative rho (up, down):  1.974E+00 0.000E+00

     total cpu time spent up to now is     8820.8 secs

     total energy              =   -7425.29327561 Ry
     Harris-Foulkes estimate   =   -7425.29327565 Ry
     estimated scf accuracy    <       0.00000017 Ry

     iteration # 24     ecut=    50.00 Ry     beta=0.70
     Davidson diagonalization with overlap
     ethr =  2.09E-11,  avg # of iterations =  2.0

     negative rho (up, down):  1.974E+00 0.000E+00

     total cpu time spent up to now is     9109.3 secs

     total energy              =   -7425.29327564 Ry
     Harris-Foulkes estimate   =   -7425.29327565 Ry
     estimated scf accuracy    <       0.00000017 Ry

     iteration # 25     ecut=    50.00 Ry     beta=0.70
     Davidson diagonalization with overlap
     ethr =  2.09E-11,  avg # of iterations =  2.0

     negative rho (up, down):  1.974E+00 0.000E+00

     total cpu time spent up to now is     9372.5 secs

     total energy              =   -7425.29327567 Ry
     Harris-Foulkes estimate   =   -7425.29327566 Ry
     estimated scf accuracy    <       0.00000003 Ry

     iteration # 26     ecut=    50.00 Ry     beta=0.70
     Davidson diagonalization with overlap
     ethr =  3.61E-12,  avg # of iterations =  2.0

     negative rho (up, down):  1.974E+00 0.000E+00

     total cpu time spent up to now is     9703.3 secs

     total energy              =   -7425.29327567 Ry
     Harris-Foulkes estimate   =   -7425.29327567 Ry
     estimated scf accuracy    <       0.00000001 Ry

     iteration # 27     ecut=    50.00 Ry     beta=0.70
     Davidson diagonalization with overlap
     ethr =  1.50E-12,  avg # of iterations =  2.0

     negative rho (up, down):  1.974E+00 0.000E+00

     total cpu time spent up to now is     9995.9 secs

     total energy              =   -7425.29327568 Ry
     Harris-Foulkes estimate   =   -7425.29327568 Ry
     estimated scf accuracy    <       0.00000001 Ry

     iteration # 28     ecut=    50.00 Ry     beta=0.70
     Davidson diagonalization with overlap
     ethr =  1.50E-12,  avg # of iterations =  1.0

     negative rho (up, down):  1.974E+00 0.000E+00

     total cpu time spent up to now is    10275.5 secs

     End of self-consistent calculation

          k = 0.2500 0.2500 0.0833 (167653 PWs)   bands (ev):

   -19.3679  -7.1841  -6.8323  -6.3039  -6.3036  -5.8742  -5.4653  -5.3720
    -5.3717  -5.1759  -5.1758  -5.0582  -5.0578  -4.9795  -4.9565  -4.8835
    -4.7985  -4.7948  -4.7559  -4.7558  -4.5950  -4.5783  -4.5772  -4.5770
    -4.5701  -4.5143  -4.5143  -4.5024  -4.5022  -4.4654  -4.4528  -4.4524
    -4.4106  -4.4105  -4.3771  -4.3758  -4.3240  -4.3237  -4.3130  -4.3119
    -4.3065  -4.2933  -4.2933  -4.2521  -4.2340  -4.2338  -4.2269  -4.2268
    -4.1946  -4.1450  -4.1298  -4.1295  -4.1260  -4.1255  -4.1178  -4.1122
    -4.1119  -4.1117  -4.0469  -4.0465  -3.9969  -3.9966  -3.9843  -3.9583
    -3.9582  -3.9385  -3.9358  -3.9352  -3.9309  -3.9280  -3.8791  -3.8790
    -3.8660  -3.8658  -3.7608  -3.7604  -3.7546  -3.7543  -3.7170  -3.7079
    -3.6937  -3.6638  -3.6637  -3.6351  -3.6349  -3.6134  -3.6131  -3.5996
    -3.5993  -3.5446  -3.5445  -3.5262  -3.5105  -3.4991  -3.4976  -3.4974
    -3.4962  -3.4692  -3.4688  -3.4327  -3.4324  -3.4109  -3.4099  -3.3973
    -3.3769  -3.3761  -3.3584  -3.3309  -3.3308  -3.2936  -3.2934  -3.2579
    -3.2505  -3.2498  -3.2358  -3.2355  -3.2306  -3.2305  -3.1919  -3.1819
    -3.1411  -3.1410  -3.1331  -3.1237  -3.1229  -3.1215  -3.0971  -3.0971
    -3.0759  -3.0755  -3.0750  -3.0483  -3.0482  -3.0407  -3.0379  -3.0378
    -3.0018  -2.9975  -2.9622  -2.9619  -2.9612  -2.9582  -2.9581  -2.8790
    -2.8690  -2.8647  -2.8643  -2.8630  -2.8629  -2.8581  -2.8578  -2.8576
    -2.8573  -2.8478  -2.8400  -2.8231  -2.8203  -2.8199  -2.8195  -2.8048
    -2.8002  -2.7621  -2.7613  -2.7611  -2.7571  -2.7568  -2.7386  -2.7384
    -2.7296  -2.7295  -2.7273  -2.6677  -2.6677  -2.6623  -2.6622  -2.6573
    -2.6571  -2.6291  -2.5699  -2.5687  -2.5683  -2.5665  -2.5551  -2.5530
    -2.5482  -2.5372  -2.5370  -2.5003  -2.4998  -2.4911  -2.4907  -2.4902
    -2.4900  -2.4505  -2.4503  -2.4405  -2.4404  -2.4388  -2.4386  -2.3970
    -2.3810  -2.3755  -2.3219  -2.3217  -2.3034  -2.3016  -2.2965  -2.2963
    -2.2477  -2.2472  -2.2239  -2.2077  -2.1934  -2.1926  -2.1922  -2.1704
    -2.1703  -2.1606  -2.1445  -2.1032  -2.1027  -2.0893  -2.0889  -2.0884
    -2.0775  -2.0773  -2.0621  -2.0617  -2.0614  -2.0573  -2.0525  -2.0522
    -2.0518  -2.0398  -2.0395  -2.0219  -2.0216  -2.0195  -2.0134  -2.0104
    -2.0102  -1.9865  -1.9863  -1.9752  -1.9730  -1.9691  -1.9682  -1.9301
    -1.8962  -1.8958  -1.8603  -1.8431  -1.8429  -1.8326  -1.8320  -1.8091
    -1.8084  -1.7941  -1.7935  -1.7922  -1.7918  -1.7894  -1.7886  -1.7565
    -1.7561  -1.7560  -1.7104  -1.7098  -1.6704  -1.6699  -1.6237  -1.6225
    -1.6109  -1.5875  -1.5836  -1.5800  -1.5655  -1.5619  -1.5467  -1.5442
    -1.5414  -1.5390  -1.5381  -1.5373  -1.5368  -1.5343  -1.5169  -1.5140
    -1.5083  -1.4861  -1.4675  -1.4671  -1.4565  -1.4409  -1.4405  -1.4376
    -1.4371  -1.4319  -1.4210  -1.4096  -1.4027  -1.3944  -1.3850  -1.3714
    -1.3643  -1.3576  -1.3488  -1.3266  -1.3264  -1.3185  -1.3125  -1.2828
    -1.2805  -1.2743  -1.2727  -1.2656  -1.2632  -1.2439  -1.2436  -1.2318
    -1.2250  -1.2244  -1.2119  -1.2115  -1.2109  -1.2078  -1.1965  -1.1861
    -1.1853  -1.1780  -1.1779  -1.1651  -1.1613  -1.1588  -1.1544  -1.1151
    -1.1125  -1.1071  -1.1060  -1.1055  -1.1040  -1.0657  -1.0489  -1.0486
    -1.0481  -1.0470  -1.0437  -1.0419  -1.0385  -1.0247  -1.0234  -0.9867
    -0.9859  -0.9795  -0.9793  -0.9565  -0.9564  -0.9466  -0.9168  -0.9091
    -0.8818  -0.8815  -0.8537  -0.8536  -0.8508  -0.8496  -0.8490  -0.8449
    -0.8403  -0.8395  -0.8350  -0.8347  -0.8027  -0.8026  -0.7846  -0.7828
    -0.7792  -0.7789  -0.7774  -0.7759  -0.7585  -0.4819  -0.4728  -0.4166
    -0.4138  -0.3771  -0.2165  -0.1513  -0.1510  -0.1189   0.1678   0.1684
     0.4977   0.4994   0.5968   0.5970   0.6380   0.6385   0.7811   0.7827
     0.9057   0.9075   0.9945   1.5929   1.6110   1.6119   1.6507   1.6562
     1.6993   1.7023   1.7809   1.7819   1.9885   1.9888   2.2227   2.3032
     2.3047   2.3197   2.6991   2.7017   2.7741   2.7749   2.7814   2.7818
     2.9326   2.9338   2.9768   3.0757   3.0773   3.3075   3.3108   3.4433
     3.4704   3.4710   3.7410   3.7421   3.8543   3.8738   3.8740   3.9224
     3.9490   4.0604   4.0613   4.2973   4.2983   4.3843   4.3864   4.5105
     4.5133   4.5330   4.5362   4.6517   4.8897   5.3246   5.3399   5.4368
     5.4421   5.4912   5.6196   5.6223   5.6344   5.6934   5.7133   5.7370
     5.7400   5.7903   5.7913   5.8340   5.9890   6.0497   6.0948   6.1028
     6.1187   6.1261   6.1310   6.1325   6.1426   6.1440   6.1685   6.1978

          k = 0.2500 0.2500-0.2500 (167588 PWs)   bands (ev):

   -19.3679  -7.1841  -6.8323  -6.3039  -6.3036  -5.8742  -5.4653  -5.3720
    -5.3717  -5.1759  -5.1758  -5.0582  -5.0578  -4.9794  -4.9565  -4.8835
    -4.7985  -4.7948  -4.7559  -4.7558  -4.5950  -4.5783  -4.5772  -4.5770
    -4.5701  -4.5143  -4.5143  -4.5024  -4.5022  -4.4654  -4.4528  -4.4524
    -4.4106  -4.4105  -4.3771  -4.3758  -4.3240  -4.3237  -4.3130  -4.3119
    -4.3065  -4.2933  -4.2933  -4.2521  -4.2340  -4.2338  -4.2269  -4.2268
    -4.1947  -4.1450  -4.1298  -4.1295  -4.1260  -4.1255  -4.1178  -4.1123
    -4.1119  -4.1117  -4.0469  -4.0465  -3.9969  -3.9966  -3.9843  -3.9583
    -3.9582  -3.9385  -3.9358  -3.9352  -3.9309  -3.9280  -3.8791  -3.8790
    -3.8660  -3.8658  -3.7608  -3.7604  -3.7546  -3.7543  -3.7170  -3.7079
    -3.6937  -3.6638  -3.6637  -3.6351  -3.6349  -3.6134  -3.6131  -3.5996
    -3.5993  -3.5446  -3.5445  -3.5262  -3.5105  -3.4991  -3.4976  -3.4974
    -3.4962  -3.4692  -3.4688  -3.4327  -3.4324  -3.4109  -3.4099  -3.3973
    -3.3769  -3.3761  -3.3584  -3.3309  -3.3308  -3.2936  -3.2934  -3.2579
    -3.2505  -3.2498  -3.2358  -3.2355  -3.2306  -3.2305  -3.1920  -3.1819
    -3.1411  -3.1410  -3.1331  -3.1237  -3.1229  -3.1215  -3.0971  -3.0971
    -3.0759  -3.0755  -3.0750  -3.0483  -3.0482  -3.0407  -3.0379  -3.0378
    -3.0018  -2.9975  -2.9622  -2.9619  -2.9612  -2.9582  -2.9581  -2.8790
    -2.8690  -2.8647  -2.8643  -2.8630  -2.8629  -2.8581  -2.8578  -2.8576
    -2.8573  -2.8478  -2.8400  -2.8231  -2.8203  -2.8199  -2.8195  -2.8048
    -2.8002  -2.7621  -2.7613  -2.7611  -2.7571  -2.7568  -2.7386  -2.7384
    -2.7296  -2.7295  -2.7273  -2.6677  -2.6677  -2.6623  -2.6622  -2.6573
    -2.6571  -2.6291  -2.5699  -2.5687  -2.5683  -2.5665  -2.5551  -2.5530
    -2.5482  -2.5372  -2.5370  -2.5003  -2.4998  -2.4911  -2.4907  -2.4902
    -2.4900  -2.4505  -2.4503  -2.4405  -2.4404  -2.4388  -2.4386  -2.3970
    -2.3810  -2.3755  -2.3218  -2.3217  -2.3034  -2.3016  -2.2965  -2.2963
    -2.2477  -2.2472  -2.2239  -2.2077  -2.1934  -2.1926  -2.1922  -2.1704
    -2.1703  -2.1606  -2.1445  -2.1032  -2.1027  -2.0893  -2.0889  -2.0884
    -2.0775  -2.0773  -2.0621  -2.0617  -2.0614  -2.0573  -2.0525  -2.0523
    -2.0518  -2.0398  -2.0395  -2.0219  -2.0216  -2.0195  -2.0134  -2.0104
    -2.0102  -1.9865  -1.9863  -1.9752  -1.9730  -1.9691  -1.9682  -1.9301
    -1.8962  -1.8958  -1.8603  -1.8431  -1.8429  -1.8326  -1.8320  -1.8091
    -1.8084  -1.7941  -1.7935  -1.7922  -1.7918  -1.7894  -1.7886  -1.7565
    -1.7561  -1.7560  -1.7104  -1.7098  -1.6704  -1.6699  -1.6237  -1.6225
    -1.6109  -1.5875  -1.5836  -1.5800  -1.5655  -1.5619  -1.5467  -1.5442
    -1.5414  -1.5390  -1.5381  -1.5373  -1.5368  -1.5343  -1.5169  -1.5140
    -1.5083  -1.4861  -1.4675  -1.4671  -1.4565  -1.4409  -1.4405  -1.4376
    -1.4371  -1.4319  -1.4210  -1.4096  -1.4026  -1.3944  -1.3850  -1.3714
    -1.3643  -1.3576  -1.3488  -1.3266  -1.3264  -1.3185  -1.3125  -1.2828
    -1.2805  -1.2743  -1.2727  -1.2656  -1.2632  -1.2439  -1.2436  -1.2318
    -1.2250  -1.2244  -1.2119  -1.2115  -1.2108  -1.2078  -1.1965  -1.1861
    -1.1853  -1.1780  -1.1779  -1.1651  -1.1613  -1.1588  -1.1544  -1.1152
    -1.1125  -1.1071  -1.1060  -1.1055  -1.1040  -1.0657  -1.0489  -1.0486
    -1.0481  -1.0470  -1.0436  -1.0419  -1.0385  -1.0247  -1.0234  -0.9867
    -0.9859  -0.9795  -0.9793  -0.9565  -0.9564  -0.9466  -0.9168  -0.9091
    -0.8818  -0.8815  -0.8537  -0.8536  -0.8508  -0.8496  -0.8490  -0.8449
    -0.8403  -0.8395  -0.8350  -0.8347  -0.8027  -0.8026  -0.7846  -0.7828
    -0.7792  -0.7789  -0.7774  -0.7759  -0.7585  -0.4819  -0.4728  -0.4166
    -0.4138  -0.3771  -0.2165  -0.1513  -0.1510  -0.1189   0.1678   0.1684
     0.4977   0.4994   0.5968   0.5970   0.6380   0.6385   0.7812   0.7827
     0.9057   0.9075   0.9945   1.5929   1.6110   1.6119   1.6507   1.6562
     1.6993   1.7023   1.7809   1.7819   1.9885   1.9888   2.2227   2.3031
     2.3047   2.3197   2.6991   2.7017   2.7741   2.7749   2.7814   2.7818
     2.9326   2.9338   2.9768   3.0757   3.0773   3.3075   3.3108   3.4433
     3.4704   3.4710   3.7410   3.7422   3.8543   3.8738   3.8740   3.9225
     3.9491   4.0604   4.0613   4.2973   4.2983   4.3843   4.3864   4.5105
     4.5133   4.5330   4.5362   4.6517   4.8861   5.3243   5.3376   5.4344
     5.4416   5.4779   5.6209   5.6225   5.6569   5.6948   5.7352   5.7368
     5.7447   5.7902   5.7913   5.8338   6.0289   6.0610   6.0688   6.1024
     6.1157   6.1229   6.1320   6.1336   6.1426   6.1439   6.1823   6.1937

          k =-0.2500-0.2500 0.0833 (167653 PWs)   bands (ev):

   -19.3679  -7.1841  -6.8323  -6.3039  -6.3036  -5.8742  -5.4653  -5.3720
    -5.3717  -5.1759  -5.1758  -5.0582  -5.0578  -4.9795  -4.9565  -4.8835
    -4.7985  -4.7948  -4.7559  -4.7558  -4.5950  -4.5783  -4.5772  -4.5770
    -4.5701  -4.5143  -4.5143  -4.5024  -4.5022  -4.4654  -4.4528  -4.4524
    -4.4106  -4.4105  -4.3771  -4.3758  -4.3240  -4.3237  -4.3130  -4.3119
    -4.3065  -4.2933  -4.2933  -4.2521  -4.2340  -4.2338  -4.2269  -4.2268
    -4.1946  -4.1450  -4.1298  -4.1295  -4.1260  -4.1255  -4.1178  -4.1122
    -4.1119  -4.1117  -4.0469  -4.0465  -3.9969  -3.9966  -3.9843  -3.9583
    -3.9582  -3.9385  -3.9358  -3.9352  -3.9309  -3.9280  -3.8791  -3.8790
    -3.8660  -3.8658  -3.7608  -3.7604  -3.7546  -3.7543  -3.7170  -3.7079
    -3.6937  -3.6638  -3.6637  -3.6351  -3.6349  -3.6134  -3.6131  -3.5996
    -3.5993  -3.5446  -3.5445  -3.5262  -3.5105  -3.4991  -3.4976  -3.4974
    -3.4962  -3.4692  -3.4688  -3.4327  -3.4324  -3.4109  -3.4099  -3.3973
    -3.3769  -3.3761  -3.3584  -3.3309  -3.3308  -3.2936  -3.2934  -3.2579
    -3.2505  -3.2498  -3.2358  -3.2355  -3.2306  -3.2305  -3.1919  -3.1819
    -3.1411  -3.1410  -3.1331  -3.1237  -3.1229  -3.1215  -3.0971  -3.0971
    -3.0759  -3.0755  -3.0750  -3.0483  -3.0482  -3.0407  -3.0379  -3.0378
    -3.0018  -2.9975  -2.9622  -2.9619  -2.9612  -2.9582  -2.9581  -2.8790
    -2.8690  -2.8647  -2.8643  -2.8630  -2.8629  -2.8581  -2.8578  -2.8576
    -2.8573  -2.8478  -2.8400  -2.8231  -2.8203  -2.8199  -2.8195  -2.8048
    -2.8002  -2.7621  -2.7613  -2.7611  -2.7571  -2.7568  -2.7386  -2.7384
    -2.7296  -2.7295  -2.7273  -2.6677  -2.6677  -2.6623  -2.6622  -2.6573
    -2.6571  -2.6291  -2.5699  -2.5687  -2.5683  -2.5665  -2.5551  -2.5530
    -2.5482  -2.5372  -2.5370  -2.5003  -2.4998  -2.4911  -2.4907  -2.4902
    -2.4900  -2.4505  -2.4503  -2.4405  -2.4404  -2.4388  -2.4386  -2.3970
    -2.3810  -2.3755  -2.3219  -2.3217  -2.3034  -2.3016  -2.2965  -2.2963
    -2.2477  -2.2472  -2.2239  -2.2077  -2.1934  -2.1926  -2.1922  -2.1704
    -2.1703  -2.1606  -2.1445  -2.1032  -2.1027  -2.0893  -2.0889  -2.0884
    -2.0775  -2.0773  -2.0621  -2.0617  -2.0614  -2.0573  -2.0525  -2.0522
    -2.0518  -2.0398  -2.0395  -2.0219  -2.0216  -2.0195  -2.0134  -2.0104
    -2.0102  -1.9865  -1.9863  -1.9752  -1.9730  -1.9691  -1.9682  -1.9301
    -1.8962  -1.8958  -1.8603  -1.8431  -1.8429  -1.8326  -1.8320  -1.8091
    -1.8084  -1.7941  -1.7935  -1.7922  -1.7918  -1.7894  -1.7886  -1.7565
    -1.7561  -1.7560  -1.7104  -1.7098  -1.6704  -1.6699  -1.6237  -1.6225
    -1.6109  -1.5875  -1.5836  -1.5800  -1.5655  -1.5619  -1.5467  -1.5442
    -1.5414  -1.5390  -1.5381  -1.5373  -1.5368  -1.5343  -1.5169  -1.5140
    -1.5083  -1.4861  -1.4675  -1.4671  -1.4565  -1.4409  -1.4405  -1.4376
    -1.4371  -1.4319  -1.4210  -1.4096  -1.4027  -1.3944  -1.3850  -1.3714
    -1.3643  -1.3576  -1.3489  -1.3266  -1.3264  -1.3185  -1.3125  -1.2828
    -1.2805  -1.2743  -1.2727  -1.2656  -1.2632  -1.2439  -1.2436  -1.2318
    -1.2250  -1.2244  -1.2119  -1.2115  -1.2109  -1.2078  -1.1965  -1.1861
    -1.1853  -1.1780  -1.1779  -1.1651  -1.1613  -1.1588  -1.1544  -1.1151
    -1.1125  -1.1071  -1.1060  -1.1055  -1.1040  -1.0657  -1.0489  -1.0486
    -1.0481  -1.0470  -1.0437  -1.0419  -1.0385  -1.0247  -1.0234  -0.9867
    -0.9859  -0.9795  -0.9793  -0.9565  -0.9564  -0.9466  -0.9168  -0.9091
    -0.8818  -0.8815  -0.8537  -0.8536  -0.8508  -0.8496  -0.8490  -0.8449
    -0.8403  -0.8395  -0.8350  -0.8347  -0.8027  -0.8026  -0.7846  -0.7828
    -0.7792  -0.7789  -0.7774  -0.7759  -0.7585  -0.4819  -0.4728  -0.4166
    -0.4138  -0.3771  -0.2165  -0.1513  -0.1510  -0.1189   0.1678   0.1684
     0.4977   0.4994   0.5968   0.5970   0.6380   0.6385   0.7811   0.7827
     0.9057   0.9075   0.9945   1.5929   1.6110   1.6119   1.6507   1.6562
     1.6993   1.7023   1.7809   1.7819   1.9885   1.9888   2.2227   2.3032
     2.3047   2.3197   2.6991   2.7017   2.7741   2.7749   2.7814   2.7818
     2.9326   2.9338   2.9768   3.0757   3.0773   3.3075   3.3108   3.4433
     3.4704   3.4710   3.7410   3.7421   3.8543   3.8738   3.8740   3.9225
     3.9490   4.0604   4.0613   4.2973   4.2983   4.3843   4.3864   4.5105
     4.5133   4.5330   4.5362   4.6518   4.8894   5.3248   5.3410   5.4364
     5.4420   5.4843   5.6204   5.6224   5.6433   5.6960   5.7121   5.7369
     5.7401   5.7903   5.7913   5.8340   5.9910   6.0470   6.0919   6.1024
     6.1186   6.1251   6.1313   6.1327   6.1426   6.1439   6.1535   6.1966

          k =-0.2500 0.2500-0.0833 (167653 PWs)   bands (ev):

   -19.3679  -7.1841  -6.8323  -6.3042  -6.3033  -5.8742  -5.4653  -5.3723
    -5.3714  -5.1759  -5.1758  -5.0587  -5.0573  -4.9794  -4.9565  -4.8835
    -4.7986  -4.7948  -4.7560  -4.7557  -4.5950  -4.5783  -4.5774  -4.5767
    -4.5701  -4.5144  -4.5142  -4.5027  -4.5020  -4.4654  -4.4532  -4.4521
    -4.4106  -4.4105  -4.3771  -4.3759  -4.3243  -4.3233  -4.3130  -4.3119
    -4.3065  -4.2933  -4.2933  -4.2521  -4.2341  -4.2337  -4.2270  -4.2266
    -4.1947  -4.1450  -4.1300  -4.1293  -4.1260  -4.1254  -4.1178  -4.1123
    -4.1119  -4.1117  -4.0474  -4.0459  -3.9973  -3.9963  -3.9844  -3.9584
    -3.9581  -3.9384  -3.9357  -3.9353  -3.9310  -3.9280  -3.8791  -3.8790
    -3.8663  -3.8656  -3.7611  -3.7601  -3.7549  -3.7539  -3.7170  -3.7079
    -3.6937  -3.6639  -3.6636  -3.6354  -3.6346  -3.6135  -3.6129  -3.6000
    -3.5989  -3.5447  -3.5443  -3.5265  -3.5105  -3.4993  -3.4977  -3.4973
    -3.4960  -3.4692  -3.4687  -3.4331  -3.4324  -3.4107  -3.4095  -3.3974
    -3.3770  -3.3761  -3.3584  -3.3310  -3.3307  -3.2937  -3.2933  -3.2580
    -3.2505  -3.2498  -3.2361  -3.2353  -3.2307  -3.2304  -3.1919  -3.1819
    -3.1411  -3.1410  -3.1331  -3.1237  -3.1229  -3.1215  -3.0972  -3.0971
    -3.0760  -3.0756  -3.0747  -3.0483  -3.0482  -3.0407  -3.0380  -3.0377
    -3.0018  -2.9975  -2.9626  -2.9616  -2.9612  -2.9584  -2.9580  -2.8790
    -2.8690  -2.8649  -2.8640  -2.8632  -2.8626  -2.8583  -2.8578  -2.8576
    -2.8571  -2.8478  -2.8400  -2.8231  -2.8203  -2.8203  -2.8192  -2.8048
    -2.8002  -2.7621  -2.7613  -2.7611  -2.7574  -2.7564  -2.7388  -2.7382
    -2.7297  -2.7295  -2.7273  -2.6678  -2.6676  -2.6623  -2.6622  -2.6576
    -2.6569  -2.6291  -2.5699  -2.5688  -2.5683  -2.5665  -2.5551  -2.5530
    -2.5482  -2.5373  -2.5368  -2.5007  -2.4993  -2.4917  -2.4908  -2.4902
    -2.4896  -2.4508  -2.4500  -2.4405  -2.4403  -2.4392  -2.4384  -2.3969
    -2.3810  -2.3754  -2.3220  -2.3215  -2.3033  -2.3017  -2.2967  -2.2962
    -2.2482  -2.2467  -2.2239  -2.2077  -2.1935  -2.1927  -2.1922  -2.1705
    -2.1702  -2.1606  -2.1445  -2.1034  -2.1025  -2.0894  -2.0889  -2.0881
    -2.0778  -2.0771  -2.0621  -2.0618  -2.0613  -2.0573  -2.0529  -2.0523
    -2.0511  -2.0400  -2.0393  -2.0219  -2.0215  -2.0195  -2.0134  -2.0106
    -2.0100  -1.9868  -1.9861  -1.9752  -1.9730  -1.9693  -1.9680  -1.9301
    -1.8964  -1.8957  -1.8603  -1.8433  -1.8428  -1.8332  -1.8315  -1.8094
    -1.8081  -1.7947  -1.7931  -1.7922  -1.7919  -1.7898  -1.7882  -1.7567
    -1.7561  -1.7559  -1.7105  -1.7097  -1.6706  -1.6696  -1.6237  -1.6225
    -1.6108  -1.5876  -1.5836  -1.5800  -1.5655  -1.5619  -1.5468  -1.5443
    -1.5410  -1.5392  -1.5382  -1.5372  -1.5369  -1.5343  -1.5170  -1.5140
    -1.5084  -1.4861  -1.4674  -1.4670  -1.4568  -1.4408  -1.4406  -1.4379
    -1.4369  -1.4318  -1.4208  -1.4099  -1.4019  -1.3948  -1.3850  -1.3714
    -1.3643  -1.3576  -1.3491  -1.3270  -1.3260  -1.3185  -1.3124  -1.2828
    -1.2799  -1.2745  -1.2726  -1.2658  -1.2633  -1.2440  -1.2434  -1.2319
    -1.2252  -1.2243  -1.2120  -1.2115  -1.2110  -1.2078  -1.1966  -1.1859
    -1.1853  -1.1781  -1.1778  -1.1652  -1.1614  -1.1588  -1.1545  -1.1152
    -1.1122  -1.1072  -1.1061  -1.1055  -1.1040  -1.0657  -1.0496  -1.0483
    -1.0480  -1.0469  -1.0443  -1.0412  -1.0385  -1.0246  -1.0234  -0.9870
    -0.9857  -0.9795  -0.9793  -0.9567  -0.9562  -0.9466  -0.9169  -0.9092
    -0.8822  -0.8811  -0.8538  -0.8535  -0.8508  -0.8496  -0.8490  -0.8449
    -0.8403  -0.8395  -0.8352  -0.8345  -0.8029  -0.8024  -0.7856  -0.7822
    -0.7793  -0.7786  -0.7774  -0.7758  -0.7585  -0.4819  -0.4728  -0.4184
    -0.4119  -0.3771  -0.2163  -0.1516  -0.1507  -0.1191   0.1675   0.1688
     0.4959   0.5011   0.5968   0.5971   0.6371   0.6395   0.7806   0.7834
     0.9057   0.9074   0.9946   1.5927   1.6111   1.6118   1.6498   1.6562
     1.6946   1.7076   1.7807   1.7824   1.9883   1.9890   2.2224   2.3008
     2.3067   2.3197   2.6944   2.7057   2.7739   2.7754   2.7809   2.7823
     2.9330   2.9336   2.9758   3.0761   3.0792   3.3073   3.3126   3.4430
     3.4699   3.4712   3.7401   3.7434   3.8527   3.8738   3.8741   3.9149
     3.9573   4.0594   4.0624   4.2978   4.2981   4.3810   4.3887   4.5087
     4.5144   4.5266   4.5402   4.6548   4.8874   5.3172   5.3465   5.4386
     5.4435   5.4885   5.6208   5.6233   5.6330   5.6943   5.7143   5.7356
     5.7411   5.7908   5.7916   5.8352   5.9880   6.0499   6.0961   6.1041
     6.1172   6.1202   6.1291   6.1354   6.1417   6.1426   6.1624   6.1987

          k = 0.2500-0.2500-0.0833 (167653 PWs)   bands (ev):

   -19.3679  -7.1841  -6.8323  -6.3042  -6.3033  -5.8742  -5.4653  -5.3723
    -5.3714  -5.1759  -5.1758  -5.0587  -5.0573  -4.9794  -4.9565  -4.8835
    -4.7986  -4.7948  -4.7560  -4.7557  -4.5950  -4.5783  -4.5774  -4.5767
    -4.5701  -4.5144  -4.5142  -4.5027  -4.5020  -4.4654  -4.4532  -4.4521
    -4.4106  -4.4105  -4.3771  -4.3759  -4.3243  -4.3233  -4.3130  -4.3119
    -4.3065  -4.2933  -4.2933  -4.2521  -4.2341  -4.2337  -4.2270  -4.2266
    -4.1947  -4.1450  -4.1300  -4.1293  -4.1260  -4.1254  -4.1178  -4.1123
    -4.1119  -4.1117  -4.0474  -4.0459  -3.9973  -3.9963  -3.9844  -3.9584
    -3.9581  -3.9384  -3.9357  -3.9353  -3.9310  -3.9280  -3.8791  -3.8790
    -3.8663  -3.8656  -3.7611  -3.7601  -3.7549  -3.7539  -3.7170  -3.7079
    -3.6937  -3.6639  -3.6636  -3.6354  -3.6346  -3.6135  -3.6129  -3.6000
    -3.5989  -3.5447  -3.5443  -3.5265  -3.5105  -3.4993  -3.4977  -3.4973
    -3.4960  -3.4692  -3.4687  -3.4331  -3.4324  -3.4107  -3.4095  -3.3974
    -3.3770  -3.3761  -3.3584  -3.3310  -3.3307  -3.2937  -3.2933  -3.2580
    -3.2505  -3.2498  -3.2361  -3.2353  -3.2307  -3.2304  -3.1919  -3.1819
    -3.1411  -3.1410  -3.1331  -3.1237  -3.1229  -3.1215  -3.0972  -3.0971
    -3.0760  -3.0756  -3.0747  -3.0483  -3.0482  -3.0407  -3.0380  -3.0377
    -3.0018  -2.9975  -2.9626  -2.9616  -2.9612  -2.9584  -2.9580  -2.8790
    -2.8690  -2.8649  -2.8640  -2.8632  -2.8626  -2.8583  -2.8578  -2.8576
    -2.8571  -2.8478  -2.8400  -2.8231  -2.8203  -2.8203  -2.8192  -2.8048
    -2.8002  -2.7621  -2.7613  -2.7611  -2.7574  -2.7564  -2.7388  -2.7382
    -2.7297  -2.7295  -2.7273  -2.6678  -2.6676  -2.6623  -2.6622  -2.6576
    -2.6569  -2.6291  -2.5699  -2.5688  -2.5683  -2.5665  -2.5551  -2.5530
    -2.5482  -2.5373  -2.5368  -2.5007  -2.4993  -2.4917  -2.4908  -2.4902
    -2.4896  -2.4508  -2.4500  -2.4405  -2.4403  -2.4392  -2.4384  -2.3969
    -2.3810  -2.3754  -2.3220  -2.3215  -2.3033  -2.3017  -2.2967  -2.2962
    -2.2482  -2.2467  -2.2239  -2.2077  -2.1935  -2.1927  -2.1922  -2.1705
    -2.1702  -2.1606  -2.1445  -2.1034  -2.1025  -2.0894  -2.0889  -2.0881
    -2.0778  -2.0771  -2.0621  -2.0618  -2.0613  -2.0573  -2.0529  -2.0523
    -2.0511  -2.0400  -2.0393  -2.0219  -2.0215  -2.0195  -2.0134  -2.0106
    -2.0100  -1.9868  -1.9861  -1.9752  -1.9730  -1.9693  -1.9680  -1.9301
    -1.8964  -1.8957  -1.8603  -1.8433  -1.8428  -1.8332  -1.8315  -1.8094
    -1.8081  -1.7947  -1.7931  -1.7922  -1.7919  -1.7898  -1.7882  -1.7567
    -1.7561  -1.7559  -1.7105  -1.7097  -1.6706  -1.6696  -1.6237  -1.6225
    -1.6108  -1.5876  -1.5836  -1.5800  -1.5655  -1.5619  -1.5468  -1.5443
    -1.5410  -1.5392  -1.5382  -1.5372  -1.5369  -1.5343  -1.5170  -1.5140
    -1.5084  -1.4861  -1.4674  -1.4670  -1.4568  -1.4408  -1.4406  -1.4379
    -1.4369  -1.4318  -1.4208  -1.4099  -1.4019  -1.3948  -1.3850  -1.3714
    -1.3643  -1.3576  -1.3491  -1.3270  -1.3260  -1.3185  -1.3124  -1.2828
    -1.2799  -1.2745  -1.2726  -1.2658  -1.2633  -1.2440  -1.2434  -1.2319
    -1.2252  -1.2243  -1.2120  -1.2115  -1.2110  -1.2078  -1.1966  -1.1859
    -1.1853  -1.1781  -1.1778  -1.1652  -1.1614  -1.1588  -1.1545  -1.1152
    -1.1122  -1.1072  -1.1061  -1.1055  -1.1040  -1.0657  -1.0496  -1.0483
    -1.0480  -1.0469  -1.0443  -1.0412  -1.0385  -1.0246  -1.0234  -0.9870
    -0.9857  -0.9795  -0.9793  -0.9567  -0.9562  -0.9466  -0.9169  -0.9092
    -0.8822  -0.8811  -0.8538  -0.8535  -0.8508  -0.8496  -0.8490  -0.8449
    -0.8403  -0.8395  -0.8352  -0.8345  -0.8029  -0.8024  -0.7856  -0.7822
    -0.7793  -0.7786  -0.7774  -0.7758  -0.7585  -0.4819  -0.4728  -0.4184
    -0.4119  -0.3771  -0.2163  -0.1516  -0.1507  -0.1191   0.1675   0.1688
     0.4959   0.5011   0.5968   0.5971   0.6371   0.6395   0.7806   0.7834
     0.9057   0.9074   0.9946   1.5927   1.6111   1.6118   1.6498   1.6562
     1.6946   1.7076   1.7807   1.7824   1.9883   1.9890   2.2224   2.3008
     2.3067   2.3197   2.6944   2.7057   2.7739   2.7754   2.7809   2.7823
     2.9330   2.9336   2.9758   3.0761   3.0792   3.3073   3.3126   3.4430
     3.4699   3.4712   3.7401   3.7434   3.8527   3.8738   3.8741   3.9149
     3.9573   4.0594   4.0624   4.2978   4.2981   4.3810   4.3887   4.5087
     4.5144   4.5266   4.5402   4.6549   4.8874   5.3175   5.3461   5.4381
     5.4436   5.4865   5.6213   5.6232   5.6396   5.6949   5.7107   5.7351
     5.7409   5.7908   5.7916   5.8352   5.9888   6.0426   6.0965   6.1046
     6.1168   6.1209   6.1292   6.1353   6.1415   6.1426   6.1651   6.2065

          k =-0.2500 0.2500 0.2500 (167588 PWs)   bands (ev):

   -19.3679  -7.1841  -6.8323  -6.3042  -6.3033  -5.8742  -5.4653  -5.3723
    -5.3714  -5.1759  -5.1758  -5.0587  -5.0573  -4.9794  -4.9565  -4.8835
    -4.7986  -4.7948  -4.7560  -4.7557  -4.5950  -4.5783  -4.5774  -4.5767
    -4.5701  -4.5144  -4.5142  -4.5026  -4.5020  -4.4654  -4.4532  -4.4521
    -4.4106  -4.4105  -4.3771  -4.3759  -4.3243  -4.3233  -4.3130  -4.3119
    -4.3065  -4.2933  -4.2933  -4.2521  -4.2341  -4.2337  -4.2270  -4.2266
    -4.1947  -4.1450  -4.1300  -4.1293  -4.1260  -4.1254  -4.1178  -4.1123
    -4.1119  -4.1117  -4.0474  -4.0459  -3.9973  -3.9963  -3.9844  -3.9584
    -3.9581  -3.9384  -3.9357  -3.9353  -3.9310  -3.9280  -3.8791  -3.8790
    -3.8663  -3.8656  -3.7611  -3.7601  -3.7549  -3.7539  -3.7170  -3.7079
    -3.6937  -3.6639  -3.6636  -3.6354  -3.6346  -3.6135  -3.6129  -3.6000
    -3.5989  -3.5447  -3.5443  -3.5265  -3.5105  -3.4993  -3.4977  -3.4973
    -3.4960  -3.4692  -3.4687  -3.4330  -3.4324  -3.4107  -3.4095  -3.3974
    -3.3770  -3.3760  -3.3584  -3.3310  -3.3307  -3.2937  -3.2933  -3.2580
    -3.2505  -3.2498  -3.2361  -3.2353  -3.2307  -3.2304  -3.1919  -3.1819
    -3.1411  -3.1410  -3.1331  -3.1237  -3.1229  -3.1215  -3.0972  -3.0971
    -3.0760  -3.0756  -3.0747  -3.0483  -3.0482  -3.0407  -3.0380  -3.0377
    -3.0018  -2.9975  -2.9626  -2.9616  -2.9612  -2.9584  -2.9580  -2.8790
    -2.8690  -2.8649  -2.8640  -2.8633  -2.8626  -2.8583  -2.8578  -2.8576
    -2.8571  -2.8478  -2.8400  -2.8231  -2.8203  -2.8203  -2.8192  -2.8048
    -2.8002  -2.7621  -2.7613  -2.7611  -2.7574  -2.7564  -2.7388  -2.7382
    -2.7297  -2.7295  -2.7273  -2.6678  -2.6676  -2.6623  -2.6622  -2.6576
    -2.6569  -2.6291  -2.5699  -2.5688  -2.5683  -2.5665  -2.5551  -2.5530
    -2.5482  -2.5373  -2.5368  -2.5007  -2.4993  -2.4917  -2.4907  -2.4902
    -2.4896  -2.4508  -2.4501  -2.4405  -2.4403  -2.4392  -2.4384  -2.3969
    -2.3810  -2.3754  -2.3220  -2.3215  -2.3033  -2.3017  -2.2967  -2.2962
    -2.2482  -2.2467  -2.2239  -2.2077  -2.1935  -2.1927  -2.1922  -2.1705
    -2.1702  -2.1606  -2.1445  -2.1034  -2.1025  -2.0894  -2.0889  -2.0881
    -2.0778  -2.0771  -2.0621  -2.0618  -2.0613  -2.0573  -2.0529  -2.0523
    -2.0511  -2.0400  -2.0393  -2.0219  -2.0215  -2.0195  -2.0134  -2.0106
    -2.0100  -1.9868  -1.9861  -1.9752  -1.9730  -1.9693  -1.9680  -1.9301
    -1.8964  -1.8957  -1.8603  -1.8433  -1.8428  -1.8332  -1.8315  -1.8094
    -1.8081  -1.7947  -1.7930  -1.7922  -1.7919  -1.7898  -1.7882  -1.7567
    -1.7561  -1.7559  -1.7105  -1.7097  -1.6706  -1.6696  -1.6237  -1.6225
    -1.6109  -1.5876  -1.5836  -1.5800  -1.5655  -1.5619  -1.5468  -1.5443
    -1.5410  -1.5392  -1.5382  -1.5372  -1.5369  -1.5343  -1.5170  -1.5140
    -1.5084  -1.4861  -1.4674  -1.4670  -1.4568  -1.4408  -1.4406  -1.4379
    -1.4369  -1.4318  -1.4208  -1.4099  -1.4019  -1.3949  -1.3850  -1.3714
    -1.3643  -1.3576  -1.3491  -1.3270  -1.3261  -1.3185  -1.3124  -1.2828
    -1.2799  -1.2745  -1.2726  -1.2658  -1.2633  -1.2440  -1.2434  -1.2319
    -1.2252  -1.2243  -1.2120  -1.2114  -1.2110  -1.2078  -1.1966  -1.1859
    -1.1854  -1.1781  -1.1778  -1.1651  -1.1614  -1.1587  -1.1545  -1.1152
    -1.1122  -1.1072  -1.1061  -1.1055  -1.1040  -1.0657  -1.0496  -1.0483
    -1.0480  -1.0469  -1.0443  -1.0412  -1.0385  -1.0246  -1.0234  -0.9870
    -0.9857  -0.9795  -0.9793  -0.9567  -0.9562  -0.9466  -0.9169  -0.9092
    -0.8822  -0.8811  -0.8538  -0.8535  -0.8508  -0.8496  -0.8490  -0.8449
    -0.8403  -0.8395  -0.8352  -0.8345  -0.8029  -0.8024  -0.7856  -0.7822
    -0.7793  -0.7786  -0.7773  -0.7758  -0.7585  -0.4819  -0.4728  -0.4184
    -0.4119  -0.3771  -0.2163  -0.1516  -0.1507  -0.1191   0.1675   0.1688
     0.4959   0.5011   0.5968   0.5971   0.6371   0.6395   0.7806   0.7834
     0.9057   0.9074   0.9946   1.5927   1.6111   1.6118   1.6498   1.6562
     1.6946   1.7076   1.7807   1.7824   1.9883   1.9890   2.2224   2.3008
     2.3067   2.3197   2.6944   2.7057   2.7739   2.7754   2.7809   2.7823
     2.9330   2.9336   2.9758   3.0761   3.0792   3.3073   3.3126   3.4430
     3.4699   3.4712   3.7401   3.7435   3.8527   3.8738   3.8741   3.9150
     3.9574   4.0594   4.0624   4.2978   4.2981   4.3810   4.3887   4.5087
     4.5144   4.5266   4.5402   4.6548   4.8839   5.3159   5.3448   5.4372
     5.4425   5.4773   5.6214   5.6233   5.6532   5.6935   5.7317   5.7383
     5.7489   5.7908   5.7916   5.8352   6.0256   6.0388   6.0936   6.1028
     6.1165   6.1275   6.1309   6.1358   6.1418   6.1427   6.1745   6.2061

     the Fermi energy is     0.8562 ev

!    total energy              =   -7425.29327568 Ry
     Harris-Foulkes estimate   =   -7425.29327568 Ry
     estimated scf accuracy    <          3.8E-09 Ry

     The total energy is the sum of the following terms:

     one-electron contribution =  -48550.29304126 Ry
     hartree contribution      =   24825.73035085 Ry
     xc contribution           =   -3604.19972533 Ry
     ewald contribution        =   19903.47201455 Ry
     smearing contrib. (-TS)   =      -0.00287448 Ry

     convergence has been achieved in  28 iterations

     Writing output data file 1492265.save

     init_run     :    135.87s CPU    143.76s WALL (       1 calls)
     electrons    :   9575.48s CPU  10131.65s WALL (       1 calls)

     Called by init_run:
     wfcinit      :     99.53s CPU    106.45s WALL (       1 calls)
     potinit      :      9.21s CPU      9.73s WALL (       1 calls)

     Called by electrons:
     c_bands      :   7683.00s CPU   8118.38s WALL (      29 calls)
     sum_band     :   1217.63s CPU   1311.10s WALL (      29 calls)
     v_of_rho     :    142.70s CPU    157.07s WALL (      29 calls)
     newd         :    545.23s CPU    557.30s WALL (      29 calls)
     mix_rho      :      4.62s CPU      5.20s WALL (      29 calls)
     vdW_energy   :     10.48s CPU     11.53s WALL (      29 calls)
     vdW_ffts     :     74.24s CPU     81.71s WALL (      58 calls)
     vdW_v        :     16.42s CPU     17.65s WALL (      29 calls)

     Called by c_bands:
     init_us_2    :     17.10s CPU     18.35s WALL (     354 calls)
     cegterg      :   7123.88s CPU   7552.05s WALL (     174 calls)

     Called by *egterg:
     h_psi        :   2949.32s CPU   3311.88s WALL (     872 calls)
     s_psi        :    380.00s CPU    386.49s WALL (     872 calls)
     g_psi        :      4.82s CPU      4.96s WALL (     692 calls)
     cdiaghg      :   1605.05s CPU   1614.25s WALL (     860 calls)

     Called by h_psi:
     add_vuspsi   :    386.96s CPU    398.20s WALL (     872 calls)

     General routines
     calbec       :    889.16s CPU    899.60s WALL (    1046 calls)
     fft          :    266.48s CPU    282.03s WALL (    1914 calls)
     ffts         :      1.92s CPU      2.27s WALL (      58 calls)
     fftw         :   2117.14s CPU   2503.53s WALL (  468916 calls)
     interpolate  :      5.20s CPU      6.17s WALL (      58 calls)
     davcio       :      0.01s CPU      0.17s WALL (       6 calls)

     Parallel routines
     fft_scatter  :   1759.72s CPU   2082.39s WALL (  470888 calls)

     PWSCF        :     2h41m CPU        2h51m WALL


   This run was terminated on:   1:23:34  30Aug2015            

=------------------------------------------------------------------------------=
   JOB DONE.
=------------------------------------------------------------------------------=
