Setting SGE environment for SCC

     Program PWSCF v.5.1.2 starts on 23Jun2015 at 16:56:49 

     This program is part of the open-source Quantum ESPRESSO suite
     for quantum simulation of materials; please cite
         "P. Giannozzi et al., J. Phys.:Condens. Matter 21 395502 (2009);
          URL http://www.quantum-espresso.org", 
     in publications or presentations arising from this work. More details at
     http://www.quantum-espresso.org/quote

     Parallel version (MPI), running on    32 processors
     R & G space division:  proc/nbgrp/npool/nimage =      32
     Reading input from top.O1.Au62.d.2.6.phi.0.psi.90.in
Warning: card &IONS ignored
Warning: card / ignored
Warning: card &CELL ignored
Warning: card / ignored

     Current dimensions of program PWSCF are:
     Max number of different atomic species (ntypx) = 10
     Max number of k-points (npk) =  40000
     Max angular momentum in pseudopotentials (lmaxx) =  3

     IMPORTANT: XC functional enforced from input :
     Exchange-correlation      = VDW-DF ( 1  4  4  0 1 0)
     Any further DFT definition will be discarded
     Please, verify this is what you really want


     Subspace diagonalization in iterative solution of the eigenvalue problem:
     a serial algorithm will be used


     Parallelization info
     --------------------
     sticks:   dense  smooth     PW     G-vecs:    dense   smooth      PW
     Min         578     289     74               118518    41891    5486
     Max         579     290     75               118533    41932    5497
     Sum       18505    9265   2385              3792731  1341081  175711


     Title: 
     top.O1.Au62.d.2.6.phi.0.psi.90                                             


     bravais-lattice index     =            8
     lattice parameter (alat)  =      24.1233  a.u.
     unit-cell volume          =   28076.2361 (a.u.)^3
     number of atoms/cell      =           75
     number of atomic types    =            3
     number of electrons       =       800.00
     number of Kohn-Sham states=          480
     kinetic-energy cutoff     =      50.0000  Ry
     charge density cutoff     =     400.0000  Ry
     convergence threshold     =      1.0E-08
     mixing beta               =       0.7000
     number of iterations used =            8  plain     mixing
     Exchange-correlation      = VDW-DF ( 1  4  4  0 1 0)

     celldm(1)=  24.123277  celldm(2)=   1.000000  celldm(3)=   2.000000
     celldm(4)=   0.000000  celldm(5)=   0.000000  celldm(6)=   0.000000

     crystal axes: (cart. coord. in units of alat)
               a(1) = (   1.000000   0.000000   0.000000 )  
               a(2) = (   0.000000   1.000000   0.000000 )  
               a(3) = (   0.000000   0.000000   2.000000 )  

     reciprocal axes: (cart. coord. in units 2 pi/alat)
               b(1) = (  1.000000  0.000000  0.000000 )  
               b(2) = (  0.000000  1.000000  0.000000 )  
               b(3) = (  0.000000  0.000000  0.500000 )  


     PseudoPot. # 1 for Au read from file:
     /home/scc/andrejb/qe/pseudo/Au.pbe-nd-van.UPF
     MD5 check sum: 458681b50f36d87ef23c61b04bba420a
     Pseudo is Ultrasoft + core correction, Zval = 11.0
     Generated by new atomic code, or converted to UPF format
     Using radial grid of  985 points,  3 beta functions with: 
                l(1) =   1
                l(2) =   2
                l(3) =   2
     Q(r) pseudized with  8 coefficients,  rinner =    1.100   1.100   1.100
                                                       1.100   1.100

     PseudoPot. # 2 for H  read from file:
     /home/scc/andrejb/qe/pseudo/H.pbe-van_ak.UPF
     MD5 check sum: 403db7282739603aa925980fa9b8608d
     Pseudo is Ultrasoft, Zval =  1.0
     Generated by new atomic code, or converted to UPF format
     Using radial grid of  615 points,  1 beta functions with: 
                l(1) =   0
     Q(r) pseudized with  8 coefficients,  rinner =    0.800

     PseudoPot. # 3 for O  read from file:
     /home/scc/andrejb/qe/pseudo/O.pbe-van_ak.UPF
     MD5 check sum: 4b8c549914a63cae506c6ff22b5af4fe
     Pseudo is Ultrasoft, Zval =  6.0
     Generated by new atomic code, or converted to UPF format
     Using radial grid of  737 points,  4 beta functions with: 
                l(1) =   0
                l(2) =   0
                l(3) =   1
                l(4) =   1
     Q(r) pseudized with  8 coefficients,  rinner =    0.800   0.800   0.800


     vdW kernel table read from file vdW_kernel_table
     MD5 check sum: 48e77a2e26edf626eeb0eaa751ad5cac

     atomic species   valence    mass     pseudopotential
        Au            11.00   196.96657     Au( 1.00)
        H              1.00     1.01000     H ( 1.00)
        O              6.00    16.00000     O ( 1.00)

     No symmetry found



   Cartesian axes

     site n.     atom                  positions (alat units)
         1           O   tau(   1) = (   0.4998324   0.3332216   0.7029927  )
         2           H   tau(   2) = (   0.4527548   0.2877277   0.6638212  )
         3           H   tau(   3) = (   0.5454827   0.2853639   0.7409944  )
         4           Au  tau(   4) = (   0.0000000   0.0000000   0.0000000  )
         5           Au  tau(   5) = (   0.3332217   0.0000000   0.0000000  )
         6           Au  tau(   6) = (   0.6664435   0.0000000   0.0000000  )
         7           Au  tau(   7) = (   0.1666109   0.1666109   0.0000000  )
         8           Au  tau(   8) = (   0.4998326   0.1666109   0.0000000  )
         9           Au  tau(   9) = (   0.8330542   0.1666109   0.0000000  )
        10           Au  tau(  10) = (   0.0000000   0.3332217   0.0000000  )
        11           Au  tau(  11) = (   0.3332217   0.3332217   0.0000000  )
        12           Au  tau(  12) = (   0.6664435   0.3332217   0.0000000  )
        13           Au  tau(  13) = (   0.1666109   0.4998326   0.0000000  )
        14           Au  tau(  14) = (   0.4998326   0.4998326   0.0000000  )
        15           Au  tau(  15) = (   0.8330542   0.4998326   0.0000000  )
        16           Au  tau(  16) = (   0.0000000   0.6664435   0.0000000  )
        17           Au  tau(  17) = (   0.3332217   0.6664435   0.0000000  )
        18           Au  tau(  18) = (   0.6664435   0.6664435   0.0000000  )
        19           Au  tau(  19) = (   0.1666109   0.8330542   0.0000000  )
        20           Au  tau(  20) = (   0.4998326   0.8330542   0.0000000  )
        21           Au  tau(  21) = (   0.8330542   0.8330542   0.0000000  )
        22           Au  tau(  22) = (   0.1666109   0.0000000   0.1666109  )
        23           Au  tau(  23) = (   0.4998326   0.0000000   0.1666109  )
        24           Au  tau(  24) = (   0.8330542   0.0000000   0.1666109  )
        25           Au  tau(  25) = (   0.0000000   0.1666109   0.1666109  )
        26           Au  tau(  26) = (   0.3332217   0.1666109   0.1666109  )
        27           Au  tau(  27) = (   0.6664435   0.1666109   0.1666109  )
        28           Au  tau(  28) = (   0.1666109   0.3332217   0.1666109  )
        29           Au  tau(  29) = (   0.4998326   0.3332217   0.1666109  )
        30           Au  tau(  30) = (   0.8330542   0.3332217   0.1666109  )
        31           Au  tau(  31) = (   0.0000000   0.4998326   0.1666109  )
        32           Au  tau(  32) = (   0.3332217   0.4998326   0.1666109  )
        33           Au  tau(  33) = (   0.6664435   0.4998326   0.1666109  )
        34           Au  tau(  34) = (   0.1666109   0.6664435   0.1666109  )
        35           Au  tau(  35) = (   0.4998326   0.6664435   0.1666109  )
        36           Au  tau(  36) = (   0.8330542   0.6664435   0.1666109  )
        37           Au  tau(  37) = (   0.0000000   0.8330542   0.1666109  )
        38           Au  tau(  38) = (   0.3332217   0.8330542   0.1666109  )
        39           Au  tau(  39) = (   0.6664435   0.8330542   0.1666109  )
        40           Au  tau(  40) = (  -0.0000182  -0.0000182   0.3335478  )
        41           Au  tau(  41) = (   0.3332215  -0.0000181   0.3335472  )
        42           Au  tau(  42) = (   0.6664447  -0.0000183   0.3335481  )
        43           Au  tau(  43) = (  -0.0000181   0.3332215   0.3335472  )
        44           Au  tau(  44) = (   0.3332215   0.3332215   0.3335468  )
        45           Au  tau(  45) = (   0.6664445   0.3332215   0.3335478  )
        46           Au  tau(  46) = (  -0.0000183   0.6664447   0.3335481  )
        47           Au  tau(  47) = (   0.3332215   0.6664445   0.3335478  )
        48           Au  tau(  48) = (   0.6664446   0.6664446   0.3335486  )
        49           Au  tau(  49) = (   0.1666097   0.1666097   0.3335483  )
        50           Au  tau(  50) = (   0.4998320   0.1666098   0.3335477  )
        51           Au  tau(  51) = (   0.8330732   0.1666096   0.3335481  )
        52           Au  tau(  52) = (   0.1666098   0.4998320   0.3335477  )
        53           Au  tau(  53) = (   0.4998321   0.4998321   0.3335470  )
        54           Au  tau(  54) = (   0.8330730   0.4998322   0.3335474  )
        55           Au  tau(  55) = (   0.1666096   0.8330732   0.3335481  )
        56           Au  tau(  56) = (   0.4998322   0.8330730   0.3335474  )
        57           Au  tau(  57) = (   0.8330731   0.8330731   0.3335478  )
        58           Au  tau(  58) = (   0.1666104  -0.0000111   0.4993095  )
        59           Au  tau(  59) = (   0.4998323  -0.0000112   0.4993099  )
        60           Au  tau(  60) = (   0.8330661  -0.0000111   0.4993009  )
        61           Au  tau(  61) = (  -0.0000111   0.1666104   0.4993095  )
        62           Au  tau(  62) = (   0.3332214   0.1666106   0.4993185  )
        63           Au  tau(  63) = (   0.6664437   0.1666106   0.4993187  )
        64           Au  tau(  64) = (   0.1666106   0.3332214   0.4993185  )
        65           Au  tau(  65) = (   0.4998324   0.3332216   0.4993185  )
        66           Au  tau(  66) = (   0.8330659   0.3332215   0.4993103  )
        67           Au  tau(  67) = (  -0.0000112   0.4998323   0.4993099  )
        68           Au  tau(  68) = (   0.3332216   0.4998324   0.4993185  )
        69           Au  tau(  69) = (   0.6664436   0.4998325   0.4993187  )
        70           Au  tau(  70) = (   0.1666106   0.6664437   0.4993187  )
        71           Au  tau(  71) = (   0.4998325   0.6664436   0.4993187  )
        72           Au  tau(  72) = (   0.8330658   0.6664438   0.4993102  )
        73           Au  tau(  73) = (  -0.0000111   0.8330661   0.4993009  )
        74           Au  tau(  74) = (   0.3332215   0.8330659   0.4993103  )
        75           Au  tau(  75) = (   0.6664438   0.8330658   0.4993102  )

     number of k points=     6  Marzari-Vanderbilt smearing, width (Ry)=  0.0200
                       cart. coord. in units 2pi/alat
        k(    1) = (   0.2500000   0.2500000   0.0833333), wk =   0.3333333
        k(    2) = (   0.2500000   0.2500000  -0.2500000), wk =   0.3333333
        k(    3) = (  -0.2500000  -0.2500000   0.0833333), wk =   0.3333333
        k(    4) = (  -0.2500000   0.2500000  -0.0833333), wk =   0.3333333
        k(    5) = (   0.2500000  -0.2500000  -0.0833333), wk =   0.3333333
        k(    6) = (  -0.2500000   0.2500000   0.2500000), wk =   0.3333333

     Dense  grid:  3792731 G-vectors     FFT dimensions: ( 160, 160, 320)

     Smooth grid:  1341081 G-vectors     FFT dimensions: ( 120, 120, 225)

     Largest allocated arrays     est. size (Mb)     dimensions
        Kohn-Sham Wavefunctions        38.58 Mb     (    5267,  480)
        NL pseudopotentials            76.03 Mb     (    5267,  946)
        Each V/rho on FFT grid          3.91 Mb     (  256000)
        Each G-vector array             0.90 Mb     (  118520)
        G-vector shells                 0.08 Mb     (   10286)
     Largest temporary arrays     est. size (Mb)     dimensions
        Auxiliary wavefunctions       154.31 Mb     (    5267, 1920)
        Each subspace H/S matrix       56.25 Mb     (    1920, 1920)
        Each <psi_i|beta_j> matrix      6.93 Mb     (     946,  480)
        Arrays for rho mixing          31.25 Mb     (  256000,    8)

     Initial potential from superposition of free atoms
     Check: negative starting charge=   -1.945176

     starting charge  799.16392, renormalised to  800.00000

     negative rho (up, down):  1.947E+00 0.000E+00


     ************************************************************************
     *
     * You are using vdW-DF for exchange-correlation in this calculation.
     * Please cite the following three references that made this development
     * possible:
     *
     *   M. Dion, H. Rydberg, E. Schroder, D. C. Langreth, and
     *   B. I. Lundqvist, Phys. Rev. Lett. 92, 246401 (2004).
     *
     *   T. Thonhauser, V. R. Cooper, S. Li, A. Puzder, P. Hyldgaard, and
     *   D. C. Langreth, Phys. Rev. B 76, 125112 (2007).
     *
     *   G. Roman-Perez and J. M. Soler, Phys. Rev. Lett. 103, 096102 (2009).
     *
     *
     * If you are using vdW-DF2, please also cite:
     *
     *   K. Lee, E. D. Murray, L. Kong, B. I. Lundqvist, and
     *   D. C. Langreth, Phys. Rev. B 82, 081101(R) (2010).
     *
     *
     * If you are calculating the stress with vdW-DF, please also cite:
     *
     *   R. Sabatini, E. Kucukbenli, B. Kolb, T. Thonhauser, and
     *   S. de Gironcoli, J. Phys.: Condens. Matter 24, 424209 (2012).
     *
     ************************************************************************

     Carrying out vdW-DF run using the following parameters:

     Nqs =      20    Nr_points =    1024   r_max =   100.000
     q_mesh =
               0.00001000     0.04494208     0.09755937     0.15916263
               0.23128650     0.31572767     0.41458969     0.53033537
               0.66584808     0.82450364     1.01025438     1.22772762
               1.48234092     1.78043706     2.12944203     2.53805004
               3.01644009     3.57652955     4.23227104     5.00000000

     Gradients computed in reciprocal space

     ************************************************************************


     Starting wfc are  654 randomized atomic wfcs

     total cpu time spent up to now is      129.9 secs

     Self-consistent Calculation

     iteration #  1     ecut=    50.00 Ry     beta=0.70
     Davidson diagonalization with overlap
     ethr =  1.00E-02,  avg # of iterations =  3.0

     Threshold (ethr) on eigenvalues was too large:
     Diagonalizing with lowered threshold

     Davidson diagonalization with overlap
     ethr =  4.20E-04,  avg # of iterations =  2.0

     negative rho (up, down):  1.947E+00 0.000E+00

     total cpu time spent up to now is      617.9 secs

     total energy              =   -7423.02510909 Ry
     Harris-Foulkes estimate   =   -7426.05335652 Ry
     estimated scf accuracy    <       3.74134893 Ry

     iteration #  2     ecut=    50.00 Ry     beta=0.70
     Davidson diagonalization with overlap
     ethr =  4.68E-04,  avg # of iterations = 11.3

     negative rho (up, down):  1.942E+00 0.000E+00

     total cpu time spent up to now is     1443.0 secs

     total energy              =   -7415.02539884 Ry
     Harris-Foulkes estimate   =   -7432.65805863 Ry
     estimated scf accuracy    <      92.43661202 Ry

     iteration #  3     ecut=    50.00 Ry     beta=0.70
     Davidson diagonalization with overlap
     ethr =  4.68E-04,  avg # of iterations =  6.0

     negative rho (up, down):  1.953E+00 0.000E+00

     total cpu time spent up to now is     1958.7 secs

     total energy              =   -7424.53584190 Ry
     Harris-Foulkes estimate   =   -7425.84551520 Ry
     estimated scf accuracy    <       4.87209475 Ry

     iteration #  4     ecut=    50.00 Ry     beta=0.70
     Davidson diagonalization with overlap
     ethr =  4.68E-04,  avg # of iterations =  6.5

     negative rho (up, down):  1.956E+00 0.000E+00

     total cpu time spent up to now is     2263.3 secs

     total energy              =   -7424.72009606 Ry
     Harris-Foulkes estimate   =   -7425.76559898 Ry
     estimated scf accuracy    <       8.40245040 Ry

     iteration #  5     ecut=    50.00 Ry     beta=0.70
     Davidson diagonalization with overlap
     ethr =  4.68E-04,  avg # of iterations =  5.5

     negative rho (up, down):  1.965E+00 0.000E+00

     total cpu time spent up to now is     2546.7 secs

     total energy              =   -7425.22915537 Ry
     Harris-Foulkes estimate   =   -7425.36604505 Ry
     estimated scf accuracy    <       0.69151302 Ry

     iteration #  6     ecut=    50.00 Ry     beta=0.70
     Davidson diagonalization with overlap
     ethr =  8.64E-05,  avg # of iterations =  4.0

     negative rho (up, down):  1.968E+00 0.000E+00

     total cpu time spent up to now is     2815.1 secs

     total energy              =   -7425.25620875 Ry
     Harris-Foulkes estimate   =   -7425.30495659 Ry
     estimated scf accuracy    <       0.18086150 Ry

     iteration #  7     ecut=    50.00 Ry     beta=0.70
     Davidson diagonalization with overlap
     ethr =  2.26E-05,  avg # of iterations =  8.0

     negative rho (up, down):  1.970E+00 0.000E+00

     total cpu time spent up to now is     3130.0 secs

     total energy              =   -7425.26748873 Ry
     Harris-Foulkes estimate   =   -7425.29546037 Ry
     estimated scf accuracy    <       0.13135482 Ry

     iteration #  8     ecut=    50.00 Ry     beta=0.70
     Davidson diagonalization with overlap
     ethr =  1.64E-05,  avg # of iterations =  8.3

     negative rho (up, down):  1.972E+00 0.000E+00

     total cpu time spent up to now is     3433.3 secs

     total energy              =   -7425.27325501 Ry
     Harris-Foulkes estimate   =   -7425.28771159 Ry
     estimated scf accuracy    <       0.05092080 Ry

     iteration #  9     ecut=    50.00 Ry     beta=0.70
     Davidson diagonalization with overlap
     ethr =  6.37E-06,  avg # of iterations =  6.0

     negative rho (up, down):  1.973E+00 0.000E+00

     total cpu time spent up to now is     3731.6 secs

     total energy              =   -7425.27848505 Ry
     Harris-Foulkes estimate   =   -7425.28285839 Ry
     estimated scf accuracy    <       0.01319296 Ry

     iteration # 10     ecut=    50.00 Ry     beta=0.70
     Davidson diagonalization with overlap
     ethr =  1.65E-06,  avg # of iterations =  6.3

     negative rho (up, down):  1.973E+00 0.000E+00

     total cpu time spent up to now is     4036.5 secs

     total energy              =   -7425.28037093 Ry
     Harris-Foulkes estimate   =   -7425.28164288 Ry
     estimated scf accuracy    <       0.00356925 Ry

     iteration # 11     ecut=    50.00 Ry     beta=0.70
     Davidson diagonalization with overlap
     ethr =  4.46E-07,  avg # of iterations =  2.5

     negative rho (up, down):  1.973E+00 0.000E+00

     total cpu time spent up to now is     4296.1 secs

     total energy              =   -7425.28054806 Ry
     Harris-Foulkes estimate   =   -7425.28159896 Ry
     estimated scf accuracy    <       0.00454405 Ry

     iteration # 12     ecut=    50.00 Ry     beta=0.70
     Davidson diagonalization with overlap
     ethr =  4.46E-07,  avg # of iterations =  2.0

     negative rho (up, down):  1.973E+00 0.000E+00

     total cpu time spent up to now is     4525.8 secs

     total energy              =   -7425.28099476 Ry
     Harris-Foulkes estimate   =   -7425.28127352 Ry
     estimated scf accuracy    <       0.00122820 Ry

     iteration # 13     ecut=    50.00 Ry     beta=0.70
     Davidson diagonalization with overlap
     ethr =  1.54E-07,  avg # of iterations =  2.0

     negative rho (up, down):  1.973E+00 0.000E+00

     total cpu time spent up to now is     4754.0 secs

     total energy              =   -7425.28112661 Ry
     Harris-Foulkes estimate   =   -7425.28116011 Ry
     estimated scf accuracy    <       0.00009618 Ry

     iteration # 14     ecut=    50.00 Ry     beta=0.70
     Davidson diagonalization with overlap
     ethr =  1.20E-08,  avg # of iterations =  3.0

     negative rho (up, down):  1.973E+00 0.000E+00

     total cpu time spent up to now is     5033.3 secs

     total energy              =   -7425.28114139 Ry
     Harris-Foulkes estimate   =   -7425.28115637 Ry
     estimated scf accuracy    <       0.00004381 Ry

     iteration # 15     ecut=    50.00 Ry     beta=0.70
     Davidson diagonalization with overlap
     ethr =  5.48E-09,  avg # of iterations =  2.0

     negative rho (up, down):  1.973E+00 0.000E+00

     total cpu time spent up to now is     5276.0 secs

     total energy              =   -7425.28114446 Ry
     Harris-Foulkes estimate   =   -7425.28115261 Ry
     estimated scf accuracy    <       0.00002905 Ry

     iteration # 16     ecut=    50.00 Ry     beta=0.70
     Davidson diagonalization with overlap
     ethr =  3.63E-09,  avg # of iterations =  3.0

     negative rho (up, down):  1.973E+00 0.000E+00

     total cpu time spent up to now is     5530.9 secs

     total energy              =   -7425.28114257 Ry
     Harris-Foulkes estimate   =   -7425.28115617 Ry
     estimated scf accuracy    <       0.00010444 Ry

     iteration # 17     ecut=    50.00 Ry     beta=0.70
     Davidson diagonalization with overlap
     ethr =  3.63E-09,  avg # of iterations =  2.0

     negative rho (up, down):  1.973E+00 0.000E+00

     total cpu time spent up to now is     5762.0 secs

     total energy              =   -7425.28114777 Ry
     Harris-Foulkes estimate   =   -7425.28115067 Ry
     estimated scf accuracy    <       0.00001263 Ry

     iteration # 18     ecut=    50.00 Ry     beta=0.70
     Davidson diagonalization with overlap
     ethr =  1.58E-09,  avg # of iterations =  2.0

     negative rho (up, down):  1.973E+00 0.000E+00

     total cpu time spent up to now is     5979.4 secs

     total energy              =   -7425.28114885 Ry
     Harris-Foulkes estimate   =   -7425.28114980 Ry
     estimated scf accuracy    <       0.00000395 Ry

     iteration # 19     ecut=    50.00 Ry     beta=0.70
     Davidson diagonalization with overlap
     ethr =  4.94E-10,  avg # of iterations =  3.0

     negative rho (up, down):  1.974E+00 0.000E+00

     total cpu time spent up to now is     6224.6 secs

     total energy              =   -7425.28114900 Ry
     Harris-Foulkes estimate   =   -7425.28114951 Ry
     estimated scf accuracy    <       0.00000124 Ry

     iteration # 20     ecut=    50.00 Ry     beta=0.70
     Davidson diagonalization with overlap
     ethr =  1.55E-10,  avg # of iterations =  2.0

     negative rho (up, down):  1.974E+00 0.000E+00

     total cpu time spent up to now is     6456.4 secs

     total energy              =   -7425.28114903 Ry
     Harris-Foulkes estimate   =   -7425.28114928 Ry
     estimated scf accuracy    <       0.00000036 Ry

     iteration # 21     ecut=    50.00 Ry     beta=0.70
     Davidson diagonalization with overlap
     ethr =  4.46E-11,  avg # of iterations =  2.0

     negative rho (up, down):  1.974E+00 0.000E+00

     total cpu time spent up to now is     6702.2 secs

     total energy              =   -7425.28114905 Ry
     Harris-Foulkes estimate   =   -7425.28114908 Ry
     estimated scf accuracy    <       0.00000006 Ry

     iteration # 22     ecut=    50.00 Ry     beta=0.70
     Davidson diagonalization with overlap
     ethr =  7.85E-12,  avg # of iterations =  3.0

     negative rho (up, down):  1.974E+00 0.000E+00

     total cpu time spent up to now is     6982.1 secs

     total energy              =   -7425.28114902 Ry
     Harris-Foulkes estimate   =   -7425.28114908 Ry
     estimated scf accuracy    <       0.00000018 Ry

     iteration # 23     ecut=    50.00 Ry     beta=0.70
     Davidson diagonalization with overlap
     ethr =  7.85E-12,  avg # of iterations =  3.0

     negative rho (up, down):  1.974E+00 0.000E+00

     total cpu time spent up to now is     7261.8 secs

     total energy              =   -7425.28114901 Ry
     Harris-Foulkes estimate   =   -7425.28114905 Ry
     estimated scf accuracy    <       0.00000006 Ry

     iteration # 24     ecut=    50.00 Ry     beta=0.70
     Davidson diagonalization with overlap
     ethr =  7.54E-12,  avg # of iterations =  3.0

     negative rho (up, down):  1.974E+00 0.000E+00

     total cpu time spent up to now is     7524.6 secs

     total energy              =   -7425.28114900 Ry
     Harris-Foulkes estimate   =   -7425.28114903 Ry
     estimated scf accuracy    <       0.00000001 Ry

     iteration # 25     ecut=    50.00 Ry     beta=0.70
     Davidson diagonalization with overlap
     ethr =  1.59E-12,  avg # of iterations =  2.0

     negative rho (up, down):  1.974E+00 0.000E+00

     total cpu time spent up to now is     7773.1 secs

     End of self-consistent calculation

          k = 0.2500 0.2500 0.0833 (167653 PWs)   bands (ev):

   -20.1522  -8.0633  -6.7932  -6.2657  -6.2641  -5.8355  -5.4282  -5.3339
    -5.3330  -5.1378  -5.1367  -5.0225  -5.0198  -4.9414  -4.9189  -4.8453
    -4.7608  -4.7564  -4.7185  -4.7170  -4.5585  -4.5415  -4.5396  -4.5387
    -4.5312  -4.4763  -4.4761  -4.4648  -4.4640  -4.4271  -4.4171  -4.4148
    -4.3733  -4.3720  -4.3453  -4.3379  -4.2963  -4.2859  -4.2796  -4.2752
    -4.2684  -4.2604  -4.2548  -4.2438  -4.2117  -4.1959  -4.1935  -4.1885
    -4.1800  -4.1548  -4.1090  -4.0940  -4.0911  -4.0908  -4.0857  -4.0797
    -4.0750  -4.0728  -4.0723  -4.0121  -4.0083  -3.9608  -3.9581  -3.9453
    -3.9226  -3.9190  -3.9041  -3.8973  -3.8962  -3.8920  -3.8904  -3.8414
    -3.8402  -3.8282  -3.8276  -3.7244  -3.7222  -3.7163  -3.7145  -3.6789
    -3.6773  -3.6546  -3.6276  -3.6257  -3.5970  -3.5961  -3.5778  -3.5752
    -3.5636  -3.5614  -3.5069  -3.5059  -3.4923  -3.4720  -3.4641  -3.4601
    -3.4588  -3.4576  -3.4326  -3.4315  -3.3974  -3.3944  -3.3774  -3.3713
    -3.3428  -3.3375  -3.3235  -3.2957  -3.2929  -3.2572  -3.2554  -3.2215
    -3.2124  -3.2112  -3.1995  -3.1975  -3.1939  -3.1918  -3.1590  -3.1435
    -3.1122  -3.1042  -3.0965  -3.0921  -3.0857  -3.0838  -3.0611  -3.0598
    -3.0435  -3.0393  -3.0376  -3.0125  -3.0114  -3.0037  -3.0029  -3.0001
    -2.9654  -2.9632  -2.9315  -2.9265  -2.9239  -2.9222  -2.9199  -2.8593
    -2.8402  -2.8325  -2.8296  -2.8273  -2.8262  -2.8249  -2.8204  -2.8189
    -2.8182  -2.8095  -2.8062  -2.8012  -2.7864  -2.7824  -2.7806  -2.7680
    -2.7651  -2.7427  -2.7260  -2.7235  -2.7216  -2.7187  -2.7015  -2.7003
    -2.6947  -2.6924  -2.6885  -2.6745  -2.6313  -2.6307  -2.6248  -2.6240
    -2.6202  -2.6020  -2.5830  -2.5330  -2.5321  -2.5276  -2.5241  -2.5168
    -2.5160  -2.5029  -2.4998  -2.4930  -2.4642  -2.4620  -2.4576  -2.4533
    -2.4528  -2.4350  -2.4152  -2.4102  -2.4033  -2.4028  -2.4013  -2.3993
    -2.3580  -2.3402  -2.3147  -2.2856  -2.2832  -2.2692  -2.2646  -2.2599
    -2.2497  -2.2127  -2.2100  -2.1873  -2.1755  -2.1596  -2.1556  -2.1537
    -2.1351  -2.1318  -2.1242  -2.0987  -2.0753  -2.0676  -2.0558  -2.0504
    -2.0490  -2.0432  -2.0398  -2.0314  -2.0243  -2.0211  -2.0198  -2.0151
    -2.0141  -2.0120  -2.0054  -2.0016  -1.9858  -1.9836  -1.9814  -1.9764
    -1.9738  -1.9711  -1.9523  -1.9477  -1.9377  -1.9373  -1.9299  -1.9175
    -1.8873  -1.8596  -1.8538  -1.8235  -1.8078  -1.8066  -1.7976  -1.7928
    -1.7725  -1.7707  -1.7603  -1.7570  -1.7557  -1.7542  -1.7519  -1.7458
    -1.7188  -1.7174  -1.7104  -1.6736  -1.6677  -1.6370  -1.6296  -1.5861
    -1.5841  -1.5704  -1.5508  -1.5427  -1.5420  -1.5279  -1.5239  -1.5118
    -1.5062  -1.5039  -1.5025  -1.5008  -1.5006  -1.4980  -1.4917  -1.4787
    -1.4745  -1.4561  -1.4505  -1.4336  -1.4312  -1.4089  -1.4031  -1.4014
    -1.3998  -1.3959  -1.3884  -1.3748  -1.3683  -1.3577  -1.3481  -1.3382
    -1.3363  -1.3195  -1.3078  -1.2926  -1.2897  -1.2843  -1.2759  -1.2476
    -1.2442  -1.2362  -1.2342  -1.2303  -1.2196  -1.2091  -1.2054  -1.1969
    -1.1871  -1.1846  -1.1781  -1.1742  -1.1737  -1.1627  -1.1602  -1.1492
    -1.1478  -1.1401  -1.1399  -1.1299  -1.1240  -1.1186  -1.1083  -1.0779
    -1.0753  -1.0732  -1.0671  -1.0666  -1.0533  -1.0306  -1.0131  -1.0110
    -1.0103  -1.0080  -1.0073  -1.0012  -0.9972  -0.9852  -0.9700  -0.9505
    -0.9422  -0.9411  -0.9285  -0.9196  -0.9180  -0.9093  -0.8815  -0.8721
    -0.8459  -0.8435  -0.8187  -0.8172  -0.8131  -0.8123  -0.8097  -0.8050
    -0.8022  -0.8008  -0.7965  -0.7929  -0.7658  -0.7657  -0.7490  -0.7448
    -0.7419  -0.7408  -0.7393  -0.7215  -0.6949  -0.4510  -0.4328  -0.3807
    -0.3517  -0.3352  -0.1810  -0.1154  -0.1136  -0.0666   0.2040   0.2143
     0.5330   0.5526   0.6326   0.6342   0.6746   0.6766   0.8169   0.8371
     0.9424   0.9463   1.0397   1.6295   1.6474   1.6497   1.6838   1.6943
     1.7300   1.7508   1.8171   1.8331   2.0248   2.0278   2.2625   2.3379
     2.3502   2.3590   2.7311   2.7496   2.8097   2.8112   2.8195   2.8208
     2.9664   2.9709   3.0048   3.1102   3.1213   3.3449   3.3480   3.4787
     3.5064   3.5163   3.7753   3.7843   3.8940   3.9089   3.9117   3.9432
     3.9859   4.0948   4.0977   4.3306   4.3362   4.4207   4.4244   4.5434
     4.5447   4.5661   4.5967   4.6879   5.0417   5.3561   5.3741   5.4659
     5.4712   5.5368   5.6485   5.6563   5.6648   5.7125   5.7358   5.7735
     5.7759   5.8158   5.8265   5.8664   6.0253   6.0892   6.1143   6.1302
     6.1371   6.1525   6.1650   6.1666   6.1769   6.1816   6.1908   6.2312

          k = 0.2500 0.2500-0.2500 (167588 PWs)   bands (ev):

   -20.1522  -8.0633  -6.7932  -6.2657  -6.2641  -5.8356  -5.4282  -5.3339
    -5.3330  -5.1378  -5.1367  -5.0225  -5.0198  -4.9414  -4.9189  -4.8453
    -4.7608  -4.7563  -4.7185  -4.7170  -4.5585  -4.5415  -4.5396  -4.5387
    -4.5313  -4.4763  -4.4761  -4.4648  -4.4640  -4.4271  -4.4171  -4.4148
    -4.3733  -4.3720  -4.3453  -4.3379  -4.2963  -4.2859  -4.2796  -4.2752
    -4.2684  -4.2604  -4.2548  -4.2438  -4.2117  -4.1959  -4.1935  -4.1885
    -4.1800  -4.1548  -4.1090  -4.0940  -4.0911  -4.0908  -4.0857  -4.0797
    -4.0750  -4.0728  -4.0723  -4.0121  -4.0083  -3.9608  -3.9581  -3.9453
    -3.9226  -3.9190  -3.9041  -3.8973  -3.8962  -3.8920  -3.8904  -3.8415
    -3.8402  -3.8282  -3.8276  -3.7244  -3.7222  -3.7163  -3.7145  -3.6789
    -3.6773  -3.6546  -3.6276  -3.6257  -3.5970  -3.5961  -3.5778  -3.5752
    -3.5636  -3.5614  -3.5069  -3.5059  -3.4923  -3.4720  -3.4640  -3.4601
    -3.4588  -3.4576  -3.4326  -3.4315  -3.3973  -3.3943  -3.3773  -3.3713
    -3.3428  -3.3375  -3.3235  -3.2957  -3.2929  -3.2572  -3.2554  -3.2215
    -3.2124  -3.2112  -3.1995  -3.1975  -3.1939  -3.1918  -3.1590  -3.1435
    -3.1122  -3.1042  -3.0965  -3.0921  -3.0857  -3.0838  -3.0611  -3.0598
    -3.0435  -3.0393  -3.0376  -3.0125  -3.0114  -3.0037  -3.0029  -3.0001
    -2.9654  -2.9632  -2.9315  -2.9265  -2.9239  -2.9222  -2.9199  -2.8593
    -2.8402  -2.8325  -2.8296  -2.8273  -2.8262  -2.8249  -2.8204  -2.8189
    -2.8182  -2.8095  -2.8062  -2.8012  -2.7864  -2.7824  -2.7805  -2.7680
    -2.7651  -2.7427  -2.7260  -2.7235  -2.7216  -2.7187  -2.7015  -2.7003
    -2.6947  -2.6924  -2.6886  -2.6745  -2.6313  -2.6307  -2.6248  -2.6240
    -2.6202  -2.6020  -2.5830  -2.5331  -2.5321  -2.5276  -2.5241  -2.5168
    -2.5160  -2.5029  -2.4998  -2.4930  -2.4642  -2.4620  -2.4576  -2.4533
    -2.4528  -2.4350  -2.4152  -2.4102  -2.4033  -2.4028  -2.4013  -2.3993
    -2.3580  -2.3402  -2.3147  -2.2856  -2.2832  -2.2693  -2.2646  -2.2599
    -2.2497  -2.2127  -2.2100  -2.1873  -2.1755  -2.1596  -2.1556  -2.1537
    -2.1351  -2.1318  -2.1242  -2.0987  -2.0753  -2.0676  -2.0558  -2.0504
    -2.0489  -2.0432  -2.0398  -2.0314  -2.0243  -2.0211  -2.0198  -2.0151
    -2.0141  -2.0120  -2.0054  -2.0016  -1.9858  -1.9836  -1.9814  -1.9764
    -1.9738  -1.9711  -1.9523  -1.9477  -1.9377  -1.9373  -1.9298  -1.9175
    -1.8873  -1.8596  -1.8538  -1.8235  -1.8078  -1.8066  -1.7976  -1.7928
    -1.7724  -1.7707  -1.7603  -1.7570  -1.7557  -1.7542  -1.7518  -1.7458
    -1.7188  -1.7174  -1.7104  -1.6736  -1.6677  -1.6370  -1.6296  -1.5861
    -1.5841  -1.5704  -1.5508  -1.5427  -1.5420  -1.5279  -1.5239  -1.5118
    -1.5062  -1.5039  -1.5025  -1.5008  -1.5006  -1.4980  -1.4917  -1.4787
    -1.4745  -1.4561  -1.4505  -1.4336  -1.4312  -1.4089  -1.4031  -1.4014
    -1.3998  -1.3959  -1.3884  -1.3748  -1.3683  -1.3577  -1.3481  -1.3382
    -1.3363  -1.3195  -1.3078  -1.2926  -1.2897  -1.2843  -1.2759  -1.2476
    -1.2441  -1.2362  -1.2342  -1.2303  -1.2196  -1.2091  -1.2054  -1.1969
    -1.1871  -1.1846  -1.1781  -1.1742  -1.1737  -1.1627  -1.1602  -1.1492
    -1.1478  -1.1401  -1.1399  -1.1299  -1.1240  -1.1186  -1.1083  -1.0779
    -1.0753  -1.0732  -1.0671  -1.0666  -1.0533  -1.0306  -1.0131  -1.0110
    -1.0103  -1.0080  -1.0073  -1.0012  -0.9972  -0.9852  -0.9700  -0.9505
    -0.9422  -0.9411  -0.9285  -0.9196  -0.9180  -0.9093  -0.8815  -0.8721
    -0.8459  -0.8435  -0.8187  -0.8172  -0.8131  -0.8123  -0.8097  -0.8050
    -0.8022  -0.8008  -0.7965  -0.7929  -0.7658  -0.7657  -0.7490  -0.7448
    -0.7419  -0.7408  -0.7393  -0.7215  -0.6949  -0.4510  -0.4328  -0.3807
    -0.3517  -0.3352  -0.1810  -0.1154  -0.1136  -0.0666   0.2040   0.2143
     0.5330   0.5526   0.6326   0.6342   0.6746   0.6766   0.8169   0.8371
     0.9424   0.9463   1.0397   1.6295   1.6474   1.6497   1.6838   1.6943
     1.7300   1.7508   1.8171   1.8331   2.0248   2.0278   2.2625   2.3379
     2.3502   2.3590   2.7311   2.7496   2.8097   2.8112   2.8195   2.8208
     2.9664   2.9709   3.0048   3.1102   3.1213   3.3449   3.3480   3.4787
     3.5064   3.5163   3.7753   3.7843   3.8940   3.9089   3.9117   3.9432
     3.9860   4.0948   4.0977   4.3306   4.3362   4.4207   4.4244   4.5434
     4.5447   4.5661   4.5967   4.6880   5.0367   5.3524   5.3694   5.4623
     5.4709   5.5281   5.6561   5.6592   5.6942   5.7165   5.7527   5.7734
     5.7760   5.8166   5.8265   5.8663   6.0280   6.0874   6.1038   6.1338
     6.1508   6.1617   6.1666   6.1693   6.1768   6.1818   6.2167   6.2330

          k =-0.2500-0.2500 0.0833 (167653 PWs)   bands (ev):

   -20.1522  -8.0633  -6.7932  -6.2657  -6.2641  -5.8355  -5.4282  -5.3339
    -5.3330  -5.1378  -5.1367  -5.0225  -5.0198  -4.9414  -4.9189  -4.8453
    -4.7608  -4.7564  -4.7185  -4.7170  -4.5585  -4.5415  -4.5396  -4.5387
    -4.5312  -4.4763  -4.4761  -4.4648  -4.4640  -4.4271  -4.4171  -4.4148
    -4.3733  -4.3720  -4.3453  -4.3379  -4.2963  -4.2859  -4.2796  -4.2752
    -4.2684  -4.2604  -4.2548  -4.2438  -4.2117  -4.1959  -4.1935  -4.1885
    -4.1800  -4.1548  -4.1090  -4.0940  -4.0911  -4.0908  -4.0857  -4.0797
    -4.0750  -4.0728  -4.0723  -4.0121  -4.0083  -3.9608  -3.9581  -3.9453
    -3.9226  -3.9190  -3.9041  -3.8973  -3.8962  -3.8920  -3.8904  -3.8414
    -3.8402  -3.8282  -3.8276  -3.7244  -3.7222  -3.7163  -3.7145  -3.6789
    -3.6773  -3.6546  -3.6276  -3.6257  -3.5970  -3.5961  -3.5778  -3.5752
    -3.5636  -3.5614  -3.5069  -3.5059  -3.4923  -3.4720  -3.4641  -3.4601
    -3.4588  -3.4576  -3.4326  -3.4315  -3.3974  -3.3944  -3.3774  -3.3713
    -3.3428  -3.3375  -3.3235  -3.2957  -3.2929  -3.2572  -3.2554  -3.2215
    -3.2124  -3.2112  -3.1995  -3.1975  -3.1939  -3.1918  -3.1590  -3.1435
    -3.1122  -3.1042  -3.0965  -3.0921  -3.0857  -3.0838  -3.0611  -3.0598
    -3.0435  -3.0393  -3.0376  -3.0125  -3.0114  -3.0037  -3.0029  -3.0001
    -2.9654  -2.9632  -2.9315  -2.9265  -2.9239  -2.9222  -2.9199  -2.8593
    -2.8402  -2.8325  -2.8296  -2.8273  -2.8262  -2.8249  -2.8204  -2.8189
    -2.8182  -2.8095  -2.8062  -2.8012  -2.7864  -2.7824  -2.7806  -2.7680
    -2.7651  -2.7427  -2.7260  -2.7235  -2.7216  -2.7187  -2.7015  -2.7003
    -2.6947  -2.6924  -2.6885  -2.6745  -2.6313  -2.6307  -2.6248  -2.6240
    -2.6202  -2.6020  -2.5830  -2.5330  -2.5321  -2.5276  -2.5241  -2.5168
    -2.5160  -2.5029  -2.4998  -2.4930  -2.4642  -2.4620  -2.4576  -2.4533
    -2.4528  -2.4350  -2.4152  -2.4102  -2.4033  -2.4028  -2.4013  -2.3993
    -2.3580  -2.3402  -2.3147  -2.2856  -2.2832  -2.2692  -2.2646  -2.2599
    -2.2497  -2.2127  -2.2100  -2.1873  -2.1755  -2.1596  -2.1556  -2.1537
    -2.1351  -2.1318  -2.1242  -2.0987  -2.0753  -2.0676  -2.0558  -2.0504
    -2.0490  -2.0432  -2.0398  -2.0314  -2.0243  -2.0211  -2.0198  -2.0151
    -2.0141  -2.0120  -2.0054  -2.0016  -1.9858  -1.9836  -1.9814  -1.9764
    -1.9738  -1.9711  -1.9523  -1.9477  -1.9377  -1.9373  -1.9299  -1.9175
    -1.8873  -1.8596  -1.8538  -1.8235  -1.8078  -1.8066  -1.7976  -1.7928
    -1.7725  -1.7707  -1.7603  -1.7570  -1.7557  -1.7542  -1.7519  -1.7458
    -1.7188  -1.7174  -1.7104  -1.6736  -1.6677  -1.6370  -1.6296  -1.5861
    -1.5841  -1.5704  -1.5508  -1.5427  -1.5420  -1.5279  -1.5239  -1.5118
    -1.5062  -1.5039  -1.5025  -1.5008  -1.5006  -1.4980  -1.4917  -1.4787
    -1.4745  -1.4561  -1.4505  -1.4336  -1.4312  -1.4089  -1.4031  -1.4014
    -1.3998  -1.3959  -1.3884  -1.3748  -1.3683  -1.3577  -1.3481  -1.3382
    -1.3363  -1.3195  -1.3078  -1.2926  -1.2897  -1.2843  -1.2759  -1.2476
    -1.2442  -1.2362  -1.2342  -1.2303  -1.2196  -1.2091  -1.2054  -1.1969
    -1.1871  -1.1846  -1.1781  -1.1742  -1.1737  -1.1627  -1.1602  -1.1492
    -1.1478  -1.1401  -1.1399  -1.1299  -1.1240  -1.1186  -1.1083  -1.0779
    -1.0753  -1.0732  -1.0671  -1.0666  -1.0533  -1.0306  -1.0131  -1.0110
    -1.0103  -1.0080  -1.0073  -1.0012  -0.9972  -0.9852  -0.9700  -0.9505
    -0.9422  -0.9411  -0.9285  -0.9196  -0.9180  -0.9093  -0.8815  -0.8721
    -0.8459  -0.8435  -0.8187  -0.8172  -0.8131  -0.8123  -0.8097  -0.8050
    -0.8022  -0.8008  -0.7965  -0.7929  -0.7658  -0.7657  -0.7490  -0.7448
    -0.7419  -0.7408  -0.7393  -0.7215  -0.6949  -0.4510  -0.4328  -0.3807
    -0.3517  -0.3352  -0.1810  -0.1154  -0.1136  -0.0666   0.2040   0.2143
     0.5330   0.5526   0.6326   0.6342   0.6746   0.6766   0.8169   0.8371
     0.9424   0.9463   1.0397   1.6295   1.6474   1.6497   1.6838   1.6943
     1.7300   1.7508   1.8171   1.8331   2.0248   2.0278   2.2625   2.3379
     2.3502   2.3590   2.7311   2.7496   2.8097   2.8112   2.8195   2.8208
     2.9664   2.9709   3.0048   3.1102   3.1213   3.3449   3.3480   3.4787
     3.5064   3.5163   3.7753   3.7843   3.8940   3.9089   3.9117   3.9432
     3.9859   4.0948   4.0977   4.3306   4.3362   4.4207   4.4244   4.5434
     4.5447   4.5661   4.5967   4.6880   5.0415   5.3560   5.3750   5.4659
     5.4710   5.5343   5.6486   5.6565   5.6675   5.7126   5.7354   5.7736
     5.7759   5.8162   5.8265   5.8665   6.0264   6.0895   6.1126   6.1304
     6.1366   6.1527   6.1654   6.1668   6.1767   6.1809   6.1850   6.2282

          k =-0.2500 0.2500-0.0833 (167653 PWs)   bands (ev):

   -20.1522  -8.0633  -6.7932  -6.2661  -6.2638  -5.8354  -5.4282  -5.3343
    -5.3325  -5.1378  -5.1370  -5.0220  -5.0204  -4.9410  -4.9189  -4.8452
    -4.7616  -4.7563  -4.7186  -4.7170  -4.5588  -4.5407  -4.5392  -4.5384
    -4.5313  -4.4765  -4.4761  -4.4648  -4.4636  -4.4267  -4.4167  -4.4151
    -4.3734  -4.3719  -4.3451  -4.3386  -4.2950  -4.2863  -4.2798  -4.2744
    -4.2699  -4.2607  -4.2548  -4.2434  -4.2136  -4.1962  -4.1918  -4.1884
    -4.1827  -4.1567  -4.1095  -4.0925  -4.0915  -4.0903  -4.0851  -4.0797
    -4.0747  -4.0727  -4.0706  -4.0115  -4.0076  -3.9612  -3.9586  -3.9465
    -3.9219  -3.9179  -3.9036  -3.8969  -3.8963  -3.8906  -3.8899  -3.8408
    -3.8401  -3.8287  -3.8274  -3.7247  -3.7230  -3.7180  -3.7161  -3.6787
    -3.6773  -3.6546  -3.6275  -3.6256  -3.5971  -3.5961  -3.5790  -3.5751
    -3.5642  -3.5616  -3.5069  -3.5059  -3.4887  -3.4722  -3.4629  -3.4598
    -3.4594  -3.4580  -3.4339  -3.4313  -3.3964  -3.3945  -3.3773  -3.3724
    -3.3421  -3.3383  -3.3234  -3.2937  -3.2931  -3.2572  -3.2559  -3.2233
    -3.2125  -3.2112  -3.2012  -3.1979  -3.1931  -3.1918  -3.1589  -3.1436
    -3.1112  -3.1042  -3.0969  -3.0922  -3.0854  -3.0839  -3.0615  -3.0599
    -3.0431  -3.0390  -3.0380  -3.0119  -3.0105  -3.0040  -3.0015  -3.0007
    -2.9642  -2.9632  -2.9325  -2.9280  -2.9240  -2.9220  -2.9200  -2.8565
    -2.8402  -2.8317  -2.8288  -2.8274  -2.8266  -2.8250  -2.8208  -2.8190
    -2.8182  -2.8092  -2.8068  -2.8013  -2.7864  -2.7825  -2.7809  -2.7680
    -2.7638  -2.7456  -2.7258  -2.7236  -2.7216  -2.7192  -2.7017  -2.7004
    -2.6937  -2.6925  -2.6884  -2.6751  -2.6313  -2.6298  -2.6245  -2.6240
    -2.6208  -2.6036  -2.5825  -2.5329  -2.5321  -2.5276  -2.5236  -2.5171
    -2.5162  -2.5030  -2.5001  -2.4930  -2.4642  -2.4608  -2.4570  -2.4543
    -2.4535  -2.4358  -2.4154  -2.4118  -2.4052  -2.4025  -2.4015  -2.3992
    -2.3571  -2.3406  -2.3139  -2.2849  -2.2835  -2.2674  -2.2659  -2.2599
    -2.2499  -2.2116  -2.2086  -2.1876  -2.1734  -2.1608  -2.1557  -2.1539
    -2.1344  -2.1322  -2.1242  -2.0990  -2.0712  -2.0690  -2.0549  -2.0508
    -2.0488  -2.0435  -2.0402  -2.0291  -2.0245  -2.0212  -2.0205  -2.0159
    -2.0129  -2.0118  -2.0051  -2.0015  -1.9845  -1.9838  -1.9809  -1.9768
    -1.9738  -1.9717  -1.9521  -1.9481  -1.9377  -1.9369  -1.9304  -1.9168
    -1.8867  -1.8600  -1.8530  -1.8235  -1.8079  -1.8066  -1.8004  -1.7923
    -1.7734  -1.7692  -1.7621  -1.7576  -1.7557  -1.7543  -1.7525  -1.7458
    -1.7191  -1.7174  -1.7104  -1.6742  -1.6676  -1.6364  -1.6304  -1.5863
    -1.5837  -1.5707  -1.5512  -1.5426  -1.5419  -1.5268  -1.5247  -1.5089
    -1.5077  -1.5046  -1.5034  -1.5011  -1.5001  -1.4982  -1.4921  -1.4791
    -1.4746  -1.4551  -1.4506  -1.4346  -1.4324  -1.4079  -1.4042  -1.4011
    -1.4000  -1.3950  -1.3886  -1.3756  -1.3670  -1.3583  -1.3482  -1.3378
    -1.3361  -1.3197  -1.3075  -1.2939  -1.2895  -1.2839  -1.2757  -1.2452
    -1.2448  -1.2366  -1.2341  -1.2309  -1.2193  -1.2086  -1.2057  -1.1976
    -1.1874  -1.1846  -1.1771  -1.1748  -1.1744  -1.1624  -1.1615  -1.1489
    -1.1472  -1.1403  -1.1400  -1.1290  -1.1248  -1.1189  -1.1092  -1.0781
    -1.0741  -1.0724  -1.0672  -1.0666  -1.0535  -1.0308  -1.0137  -1.0109
    -1.0106  -1.0089  -1.0073  -1.0013  -0.9964  -0.9853  -0.9700  -0.9514
    -0.9423  -0.9412  -0.9275  -0.9192  -0.9178  -0.9094  -0.8825  -0.8722
    -0.8459  -0.8432  -0.8178  -0.8170  -0.8138  -0.8124  -0.8096  -0.8048
    -0.8023  -0.8006  -0.7968  -0.7931  -0.7663  -0.7651  -0.7503  -0.7449
    -0.7410  -0.7409  -0.7397  -0.7216  -0.6930  -0.4509  -0.4329  -0.3825
    -0.3490  -0.3350  -0.1799  -0.1149  -0.1135  -0.0678   0.2024   0.2160
     0.5308   0.5540   0.6326   0.6352   0.6729   0.6794   0.8145   0.8393
     0.9421   0.9460   1.0402   1.6295   1.6477   1.6495   1.6785   1.6941
     1.7260   1.7563   1.8156   1.8369   2.0226   2.0301   2.2612   2.3347
     2.3543   2.3575   2.7255   2.7504   2.8083   2.8138   2.8186   2.8223
     2.9680   2.9699   3.0031   3.1094   3.1288   3.3439   3.3563   3.4781
     3.5035   3.5176   3.7734   3.7883   3.8887   3.9103   3.9110   3.9438
     3.9863   4.0927   4.0992   4.3332   4.3352   4.4143   4.4269   4.5334
     4.5465   4.5635   4.5995   4.6882   5.0458   5.3433   5.3788   5.4663
     5.4739   5.5460   5.6541   5.6601   5.6686   5.7136   5.7197   5.7652
     5.7811   5.8245   5.8261   5.8705   6.0164   6.0946   6.1107   6.1353
     6.1410   6.1501   6.1603   6.1664   6.1700   6.1821   6.1907   6.2179

          k = 0.2500-0.2500-0.0833 (167653 PWs)   bands (ev):

   -20.1522  -8.0633  -6.7932  -6.2661  -6.2638  -5.8354  -5.4282  -5.3343
    -5.3325  -5.1378  -5.1370  -5.0220  -5.0204  -4.9410  -4.9189  -4.8452
    -4.7616  -4.7563  -4.7186  -4.7170  -4.5588  -4.5407  -4.5392  -4.5384
    -4.5313  -4.4765  -4.4761  -4.4648  -4.4636  -4.4267  -4.4167  -4.4151
    -4.3734  -4.3719  -4.3451  -4.3386  -4.2950  -4.2863  -4.2798  -4.2744
    -4.2699  -4.2607  -4.2548  -4.2434  -4.2136  -4.1962  -4.1918  -4.1884
    -4.1827  -4.1567  -4.1095  -4.0925  -4.0915  -4.0903  -4.0851  -4.0797
    -4.0747  -4.0727  -4.0706  -4.0115  -4.0076  -3.9612  -3.9586  -3.9465
    -3.9219  -3.9179  -3.9036  -3.8969  -3.8963  -3.8906  -3.8899  -3.8408
    -3.8401  -3.8287  -3.8274  -3.7247  -3.7230  -3.7180  -3.7161  -3.6787
    -3.6773  -3.6546  -3.6275  -3.6256  -3.5971  -3.5961  -3.5790  -3.5751
    -3.5642  -3.5616  -3.5069  -3.5059  -3.4887  -3.4722  -3.4629  -3.4598
    -3.4594  -3.4580  -3.4339  -3.4313  -3.3964  -3.3945  -3.3773  -3.3724
    -3.3421  -3.3383  -3.3234  -3.2937  -3.2931  -3.2572  -3.2559  -3.2233
    -3.2125  -3.2112  -3.2012  -3.1979  -3.1931  -3.1918  -3.1589  -3.1436
    -3.1112  -3.1042  -3.0969  -3.0922  -3.0854  -3.0839  -3.0615  -3.0599
    -3.0431  -3.0390  -3.0380  -3.0119  -3.0105  -3.0040  -3.0015  -3.0007
    -2.9642  -2.9632  -2.9325  -2.9280  -2.9240  -2.9220  -2.9200  -2.8565
    -2.8402  -2.8317  -2.8288  -2.8274  -2.8266  -2.8250  -2.8208  -2.8190
    -2.8182  -2.8092  -2.8068  -2.8013  -2.7864  -2.7825  -2.7809  -2.7680
    -2.7638  -2.7456  -2.7258  -2.7236  -2.7216  -2.7192  -2.7017  -2.7004
    -2.6937  -2.6925  -2.6884  -2.6751  -2.6313  -2.6298  -2.6245  -2.6240
    -2.6208  -2.6036  -2.5825  -2.5329  -2.5321  -2.5276  -2.5236  -2.5171
    -2.5162  -2.5030  -2.5001  -2.4930  -2.4642  -2.4608  -2.4570  -2.4543
    -2.4535  -2.4358  -2.4154  -2.4118  -2.4052  -2.4025  -2.4015  -2.3992
    -2.3571  -2.3406  -2.3139  -2.2849  -2.2835  -2.2674  -2.2659  -2.2599
    -2.2499  -2.2116  -2.2086  -2.1876  -2.1734  -2.1608  -2.1557  -2.1539
    -2.1344  -2.1322  -2.1242  -2.0990  -2.0712  -2.0690  -2.0549  -2.0508
    -2.0488  -2.0435  -2.0402  -2.0291  -2.0245  -2.0212  -2.0205  -2.0159
    -2.0129  -2.0118  -2.0051  -2.0015  -1.9845  -1.9838  -1.9809  -1.9768
    -1.9738  -1.9717  -1.9521  -1.9481  -1.9377  -1.9369  -1.9304  -1.9168
    -1.8867  -1.8600  -1.8530  -1.8235  -1.8079  -1.8066  -1.8004  -1.7923
    -1.7734  -1.7692  -1.7621  -1.7576  -1.7557  -1.7543  -1.7525  -1.7458
    -1.7191  -1.7174  -1.7104  -1.6742  -1.6676  -1.6364  -1.6304  -1.5863
    -1.5837  -1.5707  -1.5512  -1.5426  -1.5419  -1.5268  -1.5247  -1.5089
    -1.5077  -1.5046  -1.5034  -1.5011  -1.5001  -1.4982  -1.4921  -1.4791
    -1.4746  -1.4551  -1.4506  -1.4346  -1.4324  -1.4079  -1.4042  -1.4011
    -1.4000  -1.3950  -1.3886  -1.3756  -1.3670  -1.3583  -1.3482  -1.3378
    -1.3361  -1.3197  -1.3075  -1.2939  -1.2895  -1.2839  -1.2757  -1.2452
    -1.2448  -1.2366  -1.2341  -1.2309  -1.2193  -1.2086  -1.2057  -1.1976
    -1.1874  -1.1846  -1.1771  -1.1748  -1.1744  -1.1624  -1.1615  -1.1489
    -1.1472  -1.1403  -1.1400  -1.1290  -1.1248  -1.1189  -1.1092  -1.0781
    -1.0741  -1.0724  -1.0672  -1.0666  -1.0535  -1.0308  -1.0137  -1.0109
    -1.0106  -1.0089  -1.0073  -1.0013  -0.9964  -0.9853  -0.9700  -0.9514
    -0.9423  -0.9412  -0.9275  -0.9192  -0.9178  -0.9094  -0.8825  -0.8722
    -0.8459  -0.8432  -0.8178  -0.8170  -0.8138  -0.8124  -0.8096  -0.8048
    -0.8023  -0.8006  -0.7968  -0.7931  -0.7663  -0.7651  -0.7503  -0.7449
    -0.7410  -0.7409  -0.7397  -0.7216  -0.6930  -0.4509  -0.4329  -0.3825
    -0.3490  -0.3350  -0.1799  -0.1149  -0.1135  -0.0678   0.2024   0.2160
     0.5308   0.5540   0.6326   0.6352   0.6729   0.6794   0.8145   0.8393
     0.9421   0.9460   1.0402   1.6295   1.6477   1.6495   1.6785   1.6941
     1.7260   1.7563   1.8156   1.8369   2.0226   2.0301   2.2612   2.3347
     2.3543   2.3575   2.7255   2.7504   2.8083   2.8138   2.8186   2.8223
     2.9680   2.9699   3.0031   3.1094   3.1288   3.3439   3.3563   3.4781
     3.5035   3.5176   3.7734   3.7883   3.8887   3.9103   3.9110   3.9438
     3.9863   4.0927   4.0992   4.3332   4.3352   4.4143   4.4269   4.5334
     4.5465   4.5635   4.5994   4.6882   5.0460   5.3435   5.3782   5.4662
     5.4738   5.5466   5.6548   5.6601   5.6688   5.7116   5.7202   5.7649
     5.7812   5.8245   5.8261   5.8705   6.0162   6.0902   6.1098   6.1368
     6.1424   6.1503   6.1603   6.1660   6.1703   6.1819   6.1992   6.2234

          k =-0.2500 0.2500 0.2500 (167588 PWs)   bands (ev):

   -20.1522  -8.0633  -6.7932  -6.2661  -6.2638  -5.8354  -5.4282  -5.3343
    -5.3325  -5.1378  -5.1370  -5.0220  -5.0204  -4.9410  -4.9189  -4.8452
    -4.7616  -4.7563  -4.7186  -4.7170  -4.5588  -4.5407  -4.5392  -4.5384
    -4.5313  -4.4765  -4.4761  -4.4648  -4.4636  -4.4267  -4.4167  -4.4151
    -4.3734  -4.3719  -4.3451  -4.3386  -4.2950  -4.2863  -4.2798  -4.2744
    -4.2699  -4.2607  -4.2548  -4.2434  -4.2137  -4.1962  -4.1918  -4.1884
    -4.1827  -4.1567  -4.1095  -4.0925  -4.0915  -4.0903  -4.0851  -4.0797
    -4.0747  -4.0727  -4.0706  -4.0115  -4.0075  -3.9612  -3.9586  -3.9465
    -3.9219  -3.9179  -3.9036  -3.8969  -3.8963  -3.8907  -3.8899  -3.8408
    -3.8401  -3.8287  -3.8274  -3.7247  -3.7231  -3.7180  -3.7161  -3.6787
    -3.6773  -3.6546  -3.6275  -3.6256  -3.5971  -3.5961  -3.5790  -3.5751
    -3.5642  -3.5616  -3.5069  -3.5059  -3.4887  -3.4722  -3.4629  -3.4598
    -3.4594  -3.4580  -3.4339  -3.4313  -3.3964  -3.3945  -3.3773  -3.3724
    -3.3421  -3.3382  -3.3234  -3.2937  -3.2931  -3.2572  -3.2559  -3.2233
    -3.2125  -3.2112  -3.2012  -3.1979  -3.1931  -3.1918  -3.1589  -3.1436
    -3.1112  -3.1042  -3.0969  -3.0922  -3.0854  -3.0839  -3.0616  -3.0599
    -3.0431  -3.0390  -3.0380  -3.0119  -3.0105  -3.0039  -3.0015  -3.0007
    -2.9642  -2.9632  -2.9325  -2.9280  -2.9240  -2.9220  -2.9200  -2.8565
    -2.8402  -2.8317  -2.8288  -2.8274  -2.8266  -2.8250  -2.8208  -2.8190
    -2.8182  -2.8092  -2.8068  -2.8013  -2.7864  -2.7825  -2.7809  -2.7680
    -2.7638  -2.7456  -2.7258  -2.7236  -2.7216  -2.7192  -2.7017  -2.7004
    -2.6937  -2.6925  -2.6884  -2.6751  -2.6313  -2.6298  -2.6245  -2.6240
    -2.6208  -2.6036  -2.5825  -2.5329  -2.5321  -2.5276  -2.5236  -2.5171
    -2.5162  -2.5030  -2.5001  -2.4930  -2.4642  -2.4608  -2.4570  -2.4543
    -2.4535  -2.4358  -2.4154  -2.4118  -2.4052  -2.4025  -2.4015  -2.3991
    -2.3571  -2.3406  -2.3139  -2.2849  -2.2835  -2.2674  -2.2659  -2.2599
    -2.2499  -2.2116  -2.2086  -2.1876  -2.1734  -2.1608  -2.1557  -2.1539
    -2.1344  -2.1322  -2.1242  -2.0990  -2.0712  -2.0690  -2.0549  -2.0508
    -2.0488  -2.0435  -2.0402  -2.0291  -2.0245  -2.0212  -2.0205  -2.0159
    -2.0129  -2.0118  -2.0051  -2.0015  -1.9845  -1.9838  -1.9809  -1.9768
    -1.9738  -1.9717  -1.9521  -1.9481  -1.9377  -1.9369  -1.9304  -1.9167
    -1.8867  -1.8600  -1.8530  -1.8235  -1.8079  -1.8066  -1.8004  -1.7923
    -1.7734  -1.7692  -1.7621  -1.7576  -1.7557  -1.7543  -1.7525  -1.7458
    -1.7191  -1.7174  -1.7104  -1.6742  -1.6676  -1.6364  -1.6304  -1.5863
    -1.5837  -1.5707  -1.5512  -1.5426  -1.5419  -1.5268  -1.5247  -1.5089
    -1.5077  -1.5046  -1.5034  -1.5011  -1.5001  -1.4982  -1.4921  -1.4791
    -1.4746  -1.4551  -1.4506  -1.4346  -1.4324  -1.4079  -1.4042  -1.4011
    -1.4000  -1.3950  -1.3886  -1.3756  -1.3670  -1.3583  -1.3482  -1.3378
    -1.3361  -1.3197  -1.3075  -1.2939  -1.2895  -1.2839  -1.2757  -1.2452
    -1.2448  -1.2366  -1.2341  -1.2309  -1.2193  -1.2086  -1.2057  -1.1976
    -1.1874  -1.1846  -1.1771  -1.1748  -1.1744  -1.1624  -1.1615  -1.1489
    -1.1472  -1.1403  -1.1399  -1.1290  -1.1248  -1.1189  -1.1092  -1.0781
    -1.0741  -1.0724  -1.0672  -1.0666  -1.0535  -1.0308  -1.0137  -1.0108
    -1.0106  -1.0089  -1.0073  -1.0013  -0.9964  -0.9853  -0.9700  -0.9514
    -0.9423  -0.9412  -0.9275  -0.9192  -0.9178  -0.9094  -0.8825  -0.8722
    -0.8459  -0.8432  -0.8178  -0.8170  -0.8138  -0.8124  -0.8096  -0.8048
    -0.8023  -0.8006  -0.7968  -0.7931  -0.7663  -0.7651  -0.7503  -0.7449
    -0.7410  -0.7408  -0.7397  -0.7216  -0.6930  -0.4509  -0.4329  -0.3825
    -0.3490  -0.3350  -0.1799  -0.1149  -0.1135  -0.0678   0.2024   0.2160
     0.5308   0.5540   0.6326   0.6352   0.6729   0.6794   0.8145   0.8393
     0.9421   0.9460   1.0402   1.6295   1.6477   1.6495   1.6785   1.6941
     1.7260   1.7563   1.8156   1.8369   2.0226   2.0301   2.2612   2.3347
     2.3543   2.3575   2.7255   2.7504   2.8083   2.8138   2.8186   2.8223
     2.9680   2.9699   3.0031   3.1094   3.1288   3.3439   3.3563   3.4781
     3.5035   3.5176   3.7734   3.7883   3.8887   3.9103   3.9110   3.9439
     3.9864   4.0927   4.0992   4.3332   4.3351   4.4143   4.4269   4.5334
     4.5465   4.5635   4.5994   4.6883   5.0408   5.3416   5.3722   5.4637
     5.4712   5.5413   5.6553   5.6678   5.6892   5.7063   5.7541   5.7662
     5.7829   5.8245   5.8262   5.8705   6.0223   6.0837   6.1071   6.1332
     6.1424   6.1597   6.1654   6.1704   6.1801   6.1849   6.2092   6.2496

     the Fermi energy is     0.8968 ev

!    total energy              =   -7425.28114899 Ry
     Harris-Foulkes estimate   =   -7425.28114901 Ry
     estimated scf accuracy    <          7.2E-09 Ry

     The total energy is the sum of the following terms:

     one-electron contribution =  -48863.18532562 Ry
     hartree contribution      =   24983.04277979 Ry
     xc contribution           =   -3604.24994016 Ry
     ewald contribution        =   20059.11377934 Ry
     smearing contrib. (-TS)   =      -0.00244233 Ry

     convergence has been achieved in  25 iterations

     Writing output data file 2046219.save

     init_run     :    122.72s CPU    127.28s WALL (       1 calls)
     electrons    :   7355.80s CPU   7643.59s WALL (       1 calls)

     Called by init_run:
     wfcinit      :     95.93s CPU     99.88s WALL (       1 calls)
     potinit      :      8.08s CPU      8.41s WALL (       1 calls)

     Called by electrons:
     c_bands      :   6079.93s CPU   6303.84s WALL (      26 calls)
     sum_band     :    896.58s CPU    948.24s WALL (      26 calls)
     v_of_rho     :    110.34s CPU    118.31s WALL (      26 calls)
     newd         :    278.02s CPU    281.03s WALL (      26 calls)
     mix_rho      :      2.78s CPU      3.08s WALL (      26 calls)
     vdW_energy   :      6.51s CPU      7.02s WALL (      26 calls)
     vdW_ffts     :     63.32s CPU     67.33s WALL (      52 calls)
     vdW_v        :     13.46s CPU     14.08s WALL (      26 calls)

     Called by c_bands:
     init_us_2    :     10.76s CPU     10.94s WALL (     318 calls)
     cegterg      :   5907.51s CPU   6126.06s WALL (     156 calls)

     Called by *egterg:
     h_psi        :   2291.38s CPU   2486.60s WALL (     783 calls)
     s_psi        :    318.92s CPU    320.30s WALL (     783 calls)
     g_psi        :      4.11s CPU      4.11s WALL (     621 calls)
     cdiaghg      :   1341.00s CPU   1343.34s WALL (     771 calls)

     Called by h_psi:
     add_vuspsi   :    317.90s CPU    319.22s WALL (     783 calls)

     General routines
     calbec       :    827.25s CPU    828.65s WALL (     939 calls)
     fft          :    211.20s CPU    218.75s WALL (    1716 calls)
     ffts         :      1.69s CPU      1.86s WALL (      52 calls)
     fftw         :   1588.82s CPU   1815.82s WALL (  419670 calls)
     interpolate  :      3.82s CPU      4.34s WALL (      52 calls)
     davcio       :      0.00s CPU      0.13s WALL (       6 calls)

     Parallel routines
     fft_scatter  :   1309.16s CPU   1494.07s WALL (  421438 calls)

     PWSCF        :     2h 4m CPU        2h 9m WALL


   This run was terminated on:  19: 6:34  23Jun2015            

=------------------------------------------------------------------------------=
   JOB DONE.
=------------------------------------------------------------------------------=
