
     Program PWSCF v.5.1.2 starts on 31Aug2015 at  8:33:15 

     This program is part of the open-source Quantum ESPRESSO suite
     for quantum simulation of materials; please cite
         "P. Giannozzi et al., J. Phys.:Condens. Matter 21 395502 (2009);
          URL http://www.quantum-espresso.org", 
     in publications or presentations arising from this work. More details at
     http://www.quantum-espresso.org/quote

     Parallel version (MPI), running on    32 processors
     R & G space division:  proc/nbgrp/npool/nimage =      32
     Reading input from top.O1.Au62.d.4.0.phi.0.psi.90.in
Warning: card &IONS ignored
Warning: card / ignored
Warning: card &CELL ignored
Warning: card / ignored

     Current dimensions of program PWSCF are:
     Max number of different atomic species (ntypx) = 10
     Max number of k-points (npk) =  40000
     Max angular momentum in pseudopotentials (lmaxx) =  3

     IMPORTANT: XC functional enforced from input :
     Exchange-correlation      = VDW-DF ( 1  4  4  0 1 0)
     Any further DFT definition will be discarded
     Please, verify this is what you really want


     Subspace diagonalization in iterative solution of the eigenvalue problem:
     a serial algorithm will be used


     Parallelization info
     --------------------
     sticks:   dense  smooth     PW     G-vecs:    dense   smooth      PW
     Min         578     289     74               118518    41891    5486
     Max         579     290     75               118533    41932    5497
     Sum       18505    9265   2385              3792731  1341081  175711


     Title: 
     top.O1.Au62.d.4.0.phi.0.psi.90                                             


     bravais-lattice index     =            8
     lattice parameter (alat)  =      24.1233  a.u.
     unit-cell volume          =   28076.2361 (a.u.)^3
     number of atoms/cell      =           75
     number of atomic types    =            3
     number of electrons       =       800.00
     number of Kohn-Sham states=          480
     kinetic-energy cutoff     =      50.0000  Ry
     charge density cutoff     =     400.0000  Ry
     convergence threshold     =      1.0E-08
     mixing beta               =       0.7000
     number of iterations used =            8  plain     mixing
     Exchange-correlation      = VDW-DF ( 1  4  4  0 1 0)

     celldm(1)=  24.123277  celldm(2)=   1.000000  celldm(3)=   2.000000
     celldm(4)=   0.000000  celldm(5)=   0.000000  celldm(6)=   0.000000

     crystal axes: (cart. coord. in units of alat)
               a(1) = (   1.000000   0.000000   0.000000 )  
               a(2) = (   0.000000   1.000000   0.000000 )  
               a(3) = (   0.000000   0.000000   2.000000 )  

     reciprocal axes: (cart. coord. in units 2 pi/alat)
               b(1) = (  1.000000  0.000000  0.000000 )  
               b(2) = (  0.000000  1.000000  0.000000 )  
               b(3) = (  0.000000  0.000000  0.500000 )  


     PseudoPot. # 1 for Au read from file:
     /home/scc/andrejb/qe/pseudo/Au.pbe-nd-van.UPF
     MD5 check sum: 458681b50f36d87ef23c61b04bba420a
     Pseudo is Ultrasoft + core correction, Zval = 11.0
     Generated by new atomic code, or converted to UPF format
     Using radial grid of  985 points,  3 beta functions with: 
                l(1) =   1
                l(2) =   2
                l(3) =   2
     Q(r) pseudized with  8 coefficients,  rinner =    1.100   1.100   1.100
                                                       1.100   1.100

     PseudoPot. # 2 for H  read from file:
     /home/scc/andrejb/qe/pseudo/H.pbe-van_ak.UPF
     MD5 check sum: 403db7282739603aa925980fa9b8608d
     Pseudo is Ultrasoft, Zval =  1.0
     Generated by new atomic code, or converted to UPF format
     Using radial grid of  615 points,  1 beta functions with: 
                l(1) =   0
     Q(r) pseudized with  8 coefficients,  rinner =    0.800

     PseudoPot. # 3 for O  read from file:
     /home/scc/andrejb/qe/pseudo/O.pbe-van_ak.UPF
     MD5 check sum: 4b8c549914a63cae506c6ff22b5af4fe
     Pseudo is Ultrasoft, Zval =  6.0
     Generated by new atomic code, or converted to UPF format
     Using radial grid of  737 points,  4 beta functions with: 
                l(1) =   0
                l(2) =   0
                l(3) =   1
                l(4) =   1
     Q(r) pseudized with  8 coefficients,  rinner =    0.800   0.800   0.800


     vdW kernel table read from file vdW_kernel_table
     MD5 check sum: 48e77a2e26edf626eeb0eaa751ad5cac

     atomic species   valence    mass     pseudopotential
        Au            11.00   196.96657     Au( 1.00)
        H              1.00     1.01000     H ( 1.00)
        O              6.00    16.00000     O ( 1.00)

     No symmetry found



   Cartesian axes

     site n.     atom                  positions (alat units)
         1           O   tau(   1) = (   0.4998324   0.3332216   0.8126634  )
         2           H   tau(   2) = (   0.4527548   0.2877277   0.7734919  )
         3           H   tau(   3) = (   0.5454827   0.2853639   0.8506650  )
         4           Au  tau(   4) = (   0.0000000   0.0000000   0.0000000  )
         5           Au  tau(   5) = (   0.3332217   0.0000000   0.0000000  )
         6           Au  tau(   6) = (   0.6664434   0.0000000   0.0000000  )
         7           Au  tau(   7) = (   0.1666109   0.1666109   0.0000000  )
         8           Au  tau(   8) = (   0.4998326   0.1666109   0.0000000  )
         9           Au  tau(   9) = (   0.8330542   0.1666109   0.0000000  )
        10           Au  tau(  10) = (   0.0000000   0.3332217   0.0000000  )
        11           Au  tau(  11) = (   0.3332217   0.3332217   0.0000000  )
        12           Au  tau(  12) = (   0.6664434   0.3332217   0.0000000  )
        13           Au  tau(  13) = (   0.1666109   0.4998326   0.0000000  )
        14           Au  tau(  14) = (   0.4998326   0.4998326   0.0000000  )
        15           Au  tau(  15) = (   0.8330542   0.4998326   0.0000000  )
        16           Au  tau(  16) = (   0.0000000   0.6664434   0.0000000  )
        17           Au  tau(  17) = (   0.3332217   0.6664434   0.0000000  )
        18           Au  tau(  18) = (   0.6664434   0.6664434   0.0000000  )
        19           Au  tau(  19) = (   0.1666109   0.8330542   0.0000000  )
        20           Au  tau(  20) = (   0.4998326   0.8330542   0.0000000  )
        21           Au  tau(  21) = (   0.8330542   0.8330542   0.0000000  )
        22           Au  tau(  22) = (   0.1666109   0.0000000   0.1666109  )
        23           Au  tau(  23) = (   0.4998326   0.0000000   0.1666109  )
        24           Au  tau(  24) = (   0.8330542   0.0000000   0.1666109  )
        25           Au  tau(  25) = (   0.0000000   0.1666109   0.1666109  )
        26           Au  tau(  26) = (   0.3332217   0.1666109   0.1666109  )
        27           Au  tau(  27) = (   0.6664434   0.1666109   0.1666109  )
        28           Au  tau(  28) = (   0.1666109   0.3332217   0.1666109  )
        29           Au  tau(  29) = (   0.4998326   0.3332217   0.1666109  )
        30           Au  tau(  30) = (   0.8330542   0.3332217   0.1666109  )
        31           Au  tau(  31) = (   0.0000000   0.4998326   0.1666109  )
        32           Au  tau(  32) = (   0.3332217   0.4998326   0.1666109  )
        33           Au  tau(  33) = (   0.6664434   0.4998326   0.1666109  )
        34           Au  tau(  34) = (   0.1666109   0.6664434   0.1666109  )
        35           Au  tau(  35) = (   0.4998326   0.6664434   0.1666109  )
        36           Au  tau(  36) = (   0.8330542   0.6664434   0.1666109  )
        37           Au  tau(  37) = (   0.0000000   0.8330542   0.1666109  )
        38           Au  tau(  38) = (   0.3332217   0.8330542   0.1666109  )
        39           Au  tau(  39) = (   0.6664434   0.8330542   0.1666109  )
        40           Au  tau(  40) = (  -0.0000182  -0.0000182   0.3335478  )
        41           Au  tau(  41) = (   0.3332215  -0.0000181   0.3335473  )
        42           Au  tau(  42) = (   0.6664447  -0.0000183   0.3335481  )
        43           Au  tau(  43) = (  -0.0000181   0.3332215   0.3335473  )
        44           Au  tau(  44) = (   0.3332215   0.3332215   0.3335468  )
        45           Au  tau(  45) = (   0.6664445   0.3332215   0.3335477  )
        46           Au  tau(  46) = (  -0.0000183   0.6664447   0.3335481  )
        47           Au  tau(  47) = (   0.3332215   0.6664445   0.3335477  )
        48           Au  tau(  48) = (   0.6664446   0.6664446   0.3335486  )
        49           Au  tau(  49) = (   0.1666097   0.1666097   0.3335483  )
        50           Au  tau(  50) = (   0.4998320   0.1666098   0.3335477  )
        51           Au  tau(  51) = (   0.8330732   0.1666096   0.3335480  )
        52           Au  tau(  52) = (   0.1666098   0.4998320   0.3335477  )
        53           Au  tau(  53) = (   0.4998322   0.4998322   0.3335470  )
        54           Au  tau(  54) = (   0.8330731   0.4998322   0.3335474  )
        55           Au  tau(  55) = (   0.1666096   0.8330732   0.3335480  )
        56           Au  tau(  56) = (   0.4998322   0.8330731   0.3335474  )
        57           Au  tau(  57) = (   0.8330731   0.8330731   0.3335478  )
        58           Au  tau(  58) = (   0.1666104  -0.0000111   0.4993095  )
        59           Au  tau(  59) = (   0.4998323  -0.0000112   0.4993099  )
        60           Au  tau(  60) = (   0.8330660  -0.0000111   0.4993009  )
        61           Au  tau(  61) = (  -0.0000111   0.1666104   0.4993095  )
        62           Au  tau(  62) = (   0.3332213   0.1666106   0.4993185  )
        63           Au  tau(  63) = (   0.6664437   0.1666106   0.4993187  )
        64           Au  tau(  64) = (   0.1666106   0.3332213   0.4993185  )
        65           Au  tau(  65) = (   0.4998324   0.3332216   0.4993185  )
        66           Au  tau(  66) = (   0.8330658   0.3332215   0.4993102  )
        67           Au  tau(  67) = (  -0.0000112   0.4998323   0.4993099  )
        68           Au  tau(  68) = (   0.3332216   0.4998324   0.4993185  )
        69           Au  tau(  69) = (   0.6664437   0.4998325   0.4993187  )
        70           Au  tau(  70) = (   0.1666106   0.6664437   0.4993187  )
        71           Au  tau(  71) = (   0.4998325   0.6664437   0.4993187  )
        72           Au  tau(  72) = (   0.8330658   0.6664438   0.4993102  )
        73           Au  tau(  73) = (  -0.0000111   0.8330660   0.4993009  )
        74           Au  tau(  74) = (   0.3332215   0.8330658   0.4993102  )
        75           Au  tau(  75) = (   0.6664438   0.8330658   0.4993102  )

     number of k points=     6  Marzari-Vanderbilt smearing, width (Ry)=  0.0200
                       cart. coord. in units 2pi/alat
        k(    1) = (   0.2500000   0.2500000   0.0833333), wk =   0.3333333
        k(    2) = (   0.2500000   0.2500000  -0.2500000), wk =   0.3333333
        k(    3) = (  -0.2500000  -0.2500000   0.0833333), wk =   0.3333333
        k(    4) = (  -0.2500000   0.2500000  -0.0833333), wk =   0.3333333
        k(    5) = (   0.2500000  -0.2500000  -0.0833333), wk =   0.3333333
        k(    6) = (  -0.2500000   0.2500000   0.2500000), wk =   0.3333333

     Dense  grid:  3792731 G-vectors     FFT dimensions: ( 160, 160, 320)

     Smooth grid:  1341081 G-vectors     FFT dimensions: ( 120, 120, 225)

     Largest allocated arrays     est. size (Mb)     dimensions
        Kohn-Sham Wavefunctions        38.58 Mb     (    5267,  480)
        NL pseudopotentials            76.03 Mb     (    5267,  946)
        Each V/rho on FFT grid          3.91 Mb     (  256000)
        Each G-vector array             0.90 Mb     (  118520)
        G-vector shells                 0.08 Mb     (   10286)
     Largest temporary arrays     est. size (Mb)     dimensions
        Auxiliary wavefunctions       154.31 Mb     (    5267, 1920)
        Each subspace H/S matrix       56.25 Mb     (    1920, 1920)
        Each <psi_i|beta_j> matrix      6.93 Mb     (     946,  480)
        Arrays for rho mixing          31.25 Mb     (  256000,    8)

     Initial potential from superposition of free atoms
     Check: negative starting charge=   -1.945011

     starting charge  799.16392, renormalised to  800.00000

     negative rho (up, down):  1.947E+00 0.000E+00


     ************************************************************************
     *
     * You are using vdW-DF for exchange-correlation in this calculation.
     * Please cite the following three references that made this development
     * possible:
     *
     *   M. Dion, H. Rydberg, E. Schroder, D. C. Langreth, and
     *   B. I. Lundqvist, Phys. Rev. Lett. 92, 246401 (2004).
     *
     *   T. Thonhauser, V. R. Cooper, S. Li, A. Puzder, P. Hyldgaard, and
     *   D. C. Langreth, Phys. Rev. B 76, 125112 (2007).
     *
     *   G. Roman-Perez and J. M. Soler, Phys. Rev. Lett. 103, 096102 (2009).
     *
     *
     * If you are using vdW-DF2, please also cite:
     *
     *   K. Lee, E. D. Murray, L. Kong, B. I. Lundqvist, and
     *   D. C. Langreth, Phys. Rev. B 82, 081101(R) (2010).
     *
     *
     * If you are calculating the stress with vdW-DF, please also cite:
     *
     *   R. Sabatini, E. Kucukbenli, B. Kolb, T. Thonhauser, and
     *   S. de Gironcoli, J. Phys.: Condens. Matter 24, 424209 (2012).
     *
     ************************************************************************

     Carrying out vdW-DF run using the following parameters:

     Nqs =      20    Nr_points =    1024   r_max =   100.000
     q_mesh =
               0.00001000     0.04494208     0.09755937     0.15916263
               0.23128650     0.31572767     0.41458969     0.53033537
               0.66584808     0.82450364     1.01025438     1.22772762
               1.48234092     1.78043706     2.12944203     2.53805004
               3.01644009     3.57652955     4.23227104     5.00000000

     Gradients computed in reciprocal space

     ************************************************************************


     Starting wfc are  654 randomized atomic wfcs

     total cpu time spent up to now is      144.1 secs

     Self-consistent Calculation

     iteration #  1     ecut=    50.00 Ry     beta=0.70
     Davidson diagonalization with overlap
     ethr =  1.00E-02,  avg # of iterations =  3.0

     Threshold (ethr) on eigenvalues was too large:
     Diagonalizing with lowered threshold

     Davidson diagonalization with overlap
     ethr =  4.28E-04,  avg # of iterations =  3.0

     negative rho (up, down):  1.947E+00 0.000E+00

     total cpu time spent up to now is      626.4 secs

     total energy              =   -7423.00853394 Ry
     Harris-Foulkes estimate   =   -7426.08564458 Ry
     estimated scf accuracy    <       3.79791736 Ry

     iteration #  2     ecut=    50.00 Ry     beta=0.70
     Davidson diagonalization with overlap
     ethr =  4.75E-04,  avg # of iterations = 11.3

     negative rho (up, down):  1.942E+00 0.000E+00

     total cpu time spent up to now is     1426.9 secs

     total energy              =   -7414.91631247 Ry
     Harris-Foulkes estimate   =   -7432.72702365 Ry
     estimated scf accuracy    <      93.21972434 Ry

     iteration #  3     ecut=    50.00 Ry     beta=0.70
     Davidson diagonalization with overlap
     ethr =  4.75E-04,  avg # of iterations =  6.0

     negative rho (up, down):  1.953E+00 0.000E+00

     total cpu time spent up to now is     2511.9 secs

     total energy              =   -7424.03603460 Ry
     Harris-Foulkes estimate   =   -7425.91154186 Ry
     estimated scf accuracy    <       8.06365879 Ry

     iteration #  4     ecut=    50.00 Ry     beta=0.70
     Davidson diagonalization with overlap
     ethr =  4.75E-04,  avg # of iterations =  5.2

     negative rho (up, down):  1.955E+00 0.000E+00

     total cpu time spent up to now is     2751.4 secs

     total energy              =   -7424.75415687 Ry
     Harris-Foulkes estimate   =   -7425.71577289 Ry
     estimated scf accuracy    <       5.64669461 Ry

     iteration #  5     ecut=    50.00 Ry     beta=0.70
     Davidson diagonalization with overlap
     ethr =  4.75E-04,  avg # of iterations =  6.0

     negative rho (up, down):  1.963E+00 0.000E+00

     total cpu time spent up to now is     2999.5 secs

     total energy              =   -7425.10892351 Ry
     Harris-Foulkes estimate   =   -7425.56319535 Ry
     estimated scf accuracy    <       3.40445753 Ry

     iteration #  6     ecut=    50.00 Ry     beta=0.70
     Davidson diagonalization with overlap
     ethr =  4.26E-04,  avg # of iterations =  5.2

     negative rho (up, down):  1.968E+00 0.000E+00

     total cpu time spent up to now is     3225.0 secs

     total energy              =   -7425.28595237 Ry
     Harris-Foulkes estimate   =   -7425.32789284 Ry
     estimated scf accuracy    <       0.13222365 Ry

     iteration #  7     ecut=    50.00 Ry     beta=0.70
     Davidson diagonalization with overlap
     ethr =  1.65E-05,  avg # of iterations = 11.2

     negative rho (up, down):  1.970E+00 0.000E+00

     total cpu time spent up to now is     3581.6 secs

     total energy              =   -7425.28053162 Ry
     Harris-Foulkes estimate   =   -7425.32897720 Ry
     estimated scf accuracy    <       0.25064242 Ry

     iteration #  8     ecut=    50.00 Ry     beta=0.70
     Davidson diagonalization with overlap
     ethr =  1.65E-05,  avg # of iterations =  3.0

     negative rho (up, down):  1.971E+00 0.000E+00

     total cpu time spent up to now is     3774.8 secs

     total energy              =   -7425.29201828 Ry
     Harris-Foulkes estimate   =   -7425.30841370 Ry
     estimated scf accuracy    <       0.06579013 Ry

     iteration #  9     ecut=    50.00 Ry     beta=0.70
     Davidson diagonalization with overlap
     ethr =  8.22E-06,  avg # of iterations =  4.8

     negative rho (up, down):  1.972E+00 0.000E+00

     total cpu time spent up to now is     3993.0 secs

     total energy              =   -7425.29138314 Ry
     Harris-Foulkes estimate   =   -7425.30210571 Ry
     estimated scf accuracy    <       0.03765537 Ry

     iteration # 10     ecut=    50.00 Ry     beta=0.70
     Davidson diagonalization with overlap
     ethr =  4.71E-06,  avg # of iterations =  5.2

     negative rho (up, down):  1.973E+00 0.000E+00

     total cpu time spent up to now is     4211.6 secs

     total energy              =   -7425.29252182 Ry
     Harris-Foulkes estimate   =   -7425.29580110 Ry
     estimated scf accuracy    <       0.01031749 Ry

     iteration # 11     ecut=    50.00 Ry     beta=0.70
     Davidson diagonalization with overlap
     ethr =  1.29E-06,  avg # of iterations = 12.8

     negative rho (up, down):  1.974E+00 0.000E+00

     total cpu time spent up to now is     4538.9 secs

     total energy              =   -7425.29257520 Ry
     Harris-Foulkes estimate   =   -7425.29403127 Ry
     estimated scf accuracy    <       0.00548463 Ry

     iteration # 12     ecut=    50.00 Ry     beta=0.70
     Davidson diagonalization with overlap
     ethr =  6.86E-07,  avg # of iterations =  2.8

     negative rho (up, down):  1.975E+00 0.000E+00

     total cpu time spent up to now is     4719.9 secs

     total energy              =   -7425.29174283 Ry
     Harris-Foulkes estimate   =   -7425.29304413 Ry
     estimated scf accuracy    <       0.00185369 Ry

     iteration # 13     ecut=    50.00 Ry     beta=0.70
     Davidson diagonalization with overlap
     ethr =  2.32E-07,  avg # of iterations =  9.8

     negative rho (up, down):  1.974E+00 0.000E+00

     total cpu time spent up to now is     5099.2 secs

     total energy              =   -7425.29126759 Ry
     Harris-Foulkes estimate   =   -7425.29318163 Ry
     estimated scf accuracy    <       0.00841506 Ry

     iteration # 14     ecut=    50.00 Ry     beta=0.70
     Davidson diagonalization with overlap
     ethr =  2.32E-07,  avg # of iterations =  3.0

     negative rho (up, down):  1.974E+00 0.000E+00

     total cpu time spent up to now is     5322.9 secs

     total energy              =   -7425.29206346 Ry
     Harris-Foulkes estimate   =   -7425.29240260 Ry
     estimated scf accuracy    <       0.00151027 Ry

     iteration # 15     ecut=    50.00 Ry     beta=0.70
     Davidson diagonalization with overlap
     ethr =  1.89E-07,  avg # of iterations =  2.0

     negative rho (up, down):  1.974E+00 0.000E+00

     total cpu time spent up to now is     5492.1 secs

     total energy              =   -7425.29222960 Ry
     Harris-Foulkes estimate   =   -7425.29229197 Ry
     estimated scf accuracy    <       0.00025383 Ry

     iteration # 16     ecut=    50.00 Ry     beta=0.70
     Davidson diagonalization with overlap
     ethr =  3.17E-08,  avg # of iterations =  2.0

     negative rho (up, down):  1.974E+00 0.000E+00

     total cpu time spent up to now is     5670.9 secs

     total energy              =   -7425.29222736 Ry
     Harris-Foulkes estimate   =   -7425.29229717 Ry
     estimated scf accuracy    <       0.00043107 Ry

     iteration # 17     ecut=    50.00 Ry     beta=0.70
     Davidson diagonalization with overlap
     ethr =  3.17E-08,  avg # of iterations =  1.0

     negative rho (up, down):  1.974E+00 0.000E+00

     total cpu time spent up to now is     5831.5 secs

     total energy              =   -7425.29225647 Ry
     Harris-Foulkes estimate   =   -7425.29227918 Ry
     estimated scf accuracy    <       0.00014156 Ry

     iteration # 18     ecut=    50.00 Ry     beta=0.70
     Davidson diagonalization with overlap
     ethr =  1.77E-08,  avg # of iterations =  1.0

     negative rho (up, down):  1.974E+00 0.000E+00

     total cpu time spent up to now is     5990.5 secs

     total energy              =   -7425.29226745 Ry
     Harris-Foulkes estimate   =   -7425.29227002 Ry
     estimated scf accuracy    <       0.00000987 Ry

     iteration # 19     ecut=    50.00 Ry     beta=0.70
     Davidson diagonalization with overlap
     ethr =  1.23E-09,  avg # of iterations =  3.0

     negative rho (up, down):  1.974E+00 0.000E+00

     total cpu time spent up to now is     6198.2 secs

     total energy              =   -7425.29226824 Ry
     Harris-Foulkes estimate   =   -7425.29226988 Ry
     estimated scf accuracy    <       0.00000613 Ry

     iteration # 20     ecut=    50.00 Ry     beta=0.70
     Davidson diagonalization with overlap
     ethr =  7.67E-10,  avg # of iterations =  2.0

     negative rho (up, down):  1.974E+00 0.000E+00

     total cpu time spent up to now is     6370.6 secs

     total energy              =   -7425.29226899 Ry
     Harris-Foulkes estimate   =   -7425.29226989 Ry
     estimated scf accuracy    <       0.00000514 Ry

     iteration # 21     ecut=    50.00 Ry     beta=0.70
     Davidson diagonalization with overlap
     ethr =  6.43E-10,  avg # of iterations =  2.0

     negative rho (up, down):  1.974E+00 0.000E+00

     total cpu time spent up to now is     6541.0 secs

     total energy              =   -7425.29226954 Ry
     Harris-Foulkes estimate   =   -7425.29226964 Ry
     estimated scf accuracy    <       0.00000065 Ry

     iteration # 22     ecut=    50.00 Ry     beta=0.70
     Davidson diagonalization with overlap
     ethr =  8.09E-11,  avg # of iterations =  3.0

     negative rho (up, down):  1.974E+00 0.000E+00

     total cpu time spent up to now is     6737.9 secs

     total energy              =   -7425.29226962 Ry
     Harris-Foulkes estimate   =   -7425.29226974 Ry
     estimated scf accuracy    <       0.00000052 Ry

     iteration # 23     ecut=    50.00 Ry     beta=0.70
     Davidson diagonalization with overlap
     ethr =  6.52E-11,  avg # of iterations =  3.0

     negative rho (up, down):  1.974E+00 0.000E+00

     total cpu time spent up to now is     6950.2 secs

     total energy              =   -7425.29226967 Ry
     Harris-Foulkes estimate   =   -7425.29226971 Ry
     estimated scf accuracy    <       0.00000014 Ry

     iteration # 24     ecut=    50.00 Ry     beta=0.70
     Davidson diagonalization with overlap
     ethr =  1.74E-11,  avg # of iterations =  3.0

     negative rho (up, down):  1.974E+00 0.000E+00

     total cpu time spent up to now is     7184.3 secs

     total energy              =   -7425.29226970 Ry
     Harris-Foulkes estimate   =   -7425.29226972 Ry
     estimated scf accuracy    <       0.00000023 Ry

     iteration # 25     ecut=    50.00 Ry     beta=0.70
     Davidson diagonalization with overlap
     ethr =  1.74E-11,  avg # of iterations =  2.0

     negative rho (up, down):  1.974E+00 0.000E+00

     total cpu time spent up to now is     7380.8 secs

     total energy              =   -7425.29226973 Ry
     Harris-Foulkes estimate   =   -7425.29226974 Ry
     estimated scf accuracy    <       0.00000008 Ry

     iteration # 26     ecut=    50.00 Ry     beta=0.70
     Davidson diagonalization with overlap
     ethr =  1.02E-11,  avg # of iterations =  2.0

     negative rho (up, down):  1.974E+00 0.000E+00

     total cpu time spent up to now is     7577.8 secs

     total energy              =   -7425.29226975 Ry
     Harris-Foulkes estimate   =   -7425.29226974 Ry
     estimated scf accuracy    <       0.00000002 Ry

     iteration # 27     ecut=    50.00 Ry     beta=0.70
     Davidson diagonalization with overlap
     ethr =  2.38E-12,  avg # of iterations =  2.0

     negative rho (up, down):  1.974E+00 0.000E+00

     total cpu time spent up to now is     7785.6 secs

     total energy              =   -7425.29226975 Ry
     Harris-Foulkes estimate   =   -7425.29226975 Ry
     estimated scf accuracy    <       0.00000006 Ry

     iteration # 28     ecut=    50.00 Ry     beta=0.70
     Davidson diagonalization with overlap
     ethr =  2.38E-12,  avg # of iterations =  3.0

     negative rho (up, down):  1.974E+00 0.000E+00

     total cpu time spent up to now is     7991.6 secs

     End of self-consistent calculation

          k = 0.2500 0.2500 0.0833 (167653 PWs)   bands (ev):

   -19.3434  -7.1588  -6.8340  -6.3055  -6.3052  -5.8758  -5.4668  -5.3736
    -5.3734  -5.1775  -5.1775  -5.0598  -5.0594  -4.9811  -4.9581  -4.8851
    -4.8002  -4.7965  -4.7575  -4.7574  -4.5966  -4.5799  -4.5788  -4.5786
    -4.5717  -4.5159  -4.5159  -4.5040  -4.5039  -4.4670  -4.4544  -4.4541
    -4.4122  -4.4121  -4.3787  -4.3775  -4.3256  -4.3253  -4.3145  -4.3135
    -4.3081  -4.2949  -4.2949  -4.2536  -4.2356  -4.2355  -4.2285  -4.2284
    -4.1962  -4.1465  -4.1314  -4.1312  -4.1275  -4.1272  -4.1195  -4.1139
    -4.1135  -4.1134  -4.0484  -4.0481  -3.9985  -3.9983  -3.9859  -3.9599
    -3.9598  -3.9400  -3.9374  -3.9368  -3.9326  -3.9296  -3.8807  -3.8807
    -3.8676  -3.8674  -3.7623  -3.7621  -3.7562  -3.7559  -3.7186  -3.7094
    -3.6954  -3.6654  -3.6653  -3.6367  -3.6365  -3.6149  -3.6147  -3.6011
    -3.6009  -3.5462  -3.5461  -3.5277  -3.5121  -3.5006  -3.4992  -3.4990
    -3.4977  -3.4706  -3.4704  -3.4342  -3.4341  -3.4116  -3.4114  -3.3792
    -3.3784  -3.3707  -3.3600  -3.3325  -3.3325  -3.2952  -3.2950  -3.2596
    -3.2522  -3.2514  -3.2374  -3.2372  -3.2322  -3.2322  -3.1934  -3.1835
    -3.1427  -3.1426  -3.1348  -3.1253  -3.1245  -3.1231  -3.0987  -3.0987
    -3.0775  -3.0771  -3.0766  -3.0499  -3.0498  -3.0423  -3.0395  -3.0394
    -3.0034  -2.9990  -2.9638  -2.9636  -2.9627  -2.9598  -2.9597  -2.8806
    -2.8706  -2.8663  -2.8660  -2.8646  -2.8645  -2.8597  -2.8594  -2.8592
    -2.8589  -2.8495  -2.8417  -2.8247  -2.8219  -2.8214  -2.8211  -2.8064
    -2.8018  -2.7636  -2.7629  -2.7627  -2.7587  -2.7584  -2.7402  -2.7400
    -2.7312  -2.7311  -2.7289  -2.6693  -2.6693  -2.6639  -2.6639  -2.6589
    -2.6587  -2.6306  -2.5715  -2.5703  -2.5699  -2.5681  -2.5567  -2.5545
    -2.5498  -2.5387  -2.5386  -2.5018  -2.5014  -2.4926  -2.4923  -2.4918
    -2.4915  -2.4520  -2.4518  -2.4421  -2.4420  -2.4404  -2.4402  -2.3985
    -2.3825  -2.3770  -2.3234  -2.3233  -2.3049  -2.3032  -2.2980  -2.2979
    -2.2492  -2.2488  -2.2255  -2.2092  -2.1949  -2.1942  -2.1938  -2.1720
    -2.1719  -2.1622  -2.1459  -2.1046  -2.1042  -2.0907  -2.0905  -2.0901
    -2.0791  -2.0789  -2.0635  -2.0633  -2.0628  -2.0589  -2.0540  -2.0539
    -2.0534  -2.0413  -2.0411  -2.0234  -2.0232  -2.0211  -2.0150  -2.0120
    -2.0118  -1.9881  -1.9879  -1.9767  -1.9745  -1.9704  -1.9698  -1.9316
    -1.8977  -1.8974  -1.8619  -1.8447  -1.8445  -1.8340  -1.8335  -1.8104
    -1.8100  -1.7955  -1.7951  -1.7937  -1.7934  -1.7907  -1.7902  -1.7579
    -1.7578  -1.7576  -1.7117  -1.7113  -1.6716  -1.6714  -1.6246  -1.6240
    -1.6121  -1.5891  -1.5844  -1.5816  -1.5658  -1.5634  -1.5466  -1.5457
    -1.5418  -1.5406  -1.5393  -1.5388  -1.5384  -1.5358  -1.5167  -1.5155
    -1.5079  -1.4876  -1.4687  -1.4687  -1.4460  -1.4423  -1.4421  -1.4391
    -1.4386  -1.4333  -1.4184  -1.4112  -1.4022  -1.3960  -1.3858  -1.3730
    -1.3624  -1.3592  -1.3458  -1.3281  -1.3280  -1.3200  -1.3137  -1.2844
    -1.2822  -1.2759  -1.2747  -1.2671  -1.2655  -1.2455  -1.2452  -1.2334
    -1.2266  -1.2262  -1.2134  -1.2131  -1.2125  -1.2104  -1.1981  -1.1877
    -1.1869  -1.1796  -1.1795  -1.1669  -1.1629  -1.1613  -1.1560  -1.1168
    -1.1143  -1.1089  -1.1077  -1.1071  -1.1056  -1.0673  -1.0505  -1.0502
    -1.0498  -1.0490  -1.0452  -1.0442  -1.0401  -1.0267  -1.0250  -0.9883
    -0.9878  -0.9811  -0.9810  -0.9581  -0.9580  -0.9482  -0.9184  -0.9107
    -0.8834  -0.8831  -0.8553  -0.8552  -0.8524  -0.8512  -0.8506  -0.8465
    -0.8423  -0.8411  -0.8366  -0.8364  -0.8043  -0.8042  -0.7862  -0.7850
    -0.7808  -0.7805  -0.7790  -0.7781  -0.7601  -0.4834  -0.4745  -0.4182
    -0.4163  -0.3787  -0.2180  -0.1529  -0.1526  -0.1210   0.1662   0.1666
     0.4962   0.4973   0.5953   0.5954   0.6364   0.6369   0.7796   0.7807
     0.9041   0.9058   0.9925   1.5913   1.6094   1.6103   1.6492   1.6546
     1.6979   1.7001   1.7794   1.7801   1.9869   1.9872   2.2209   2.3017
     2.3029   2.3181   2.6976   2.6997   2.7726   2.7734   2.7798   2.7802
     2.9312   2.9323   2.9753   3.0742   3.0756   3.3059   3.3095   3.4417
     3.4688   3.4694   3.7395   3.7405   3.8527   3.8723   3.8724   3.9212
     3.9471   4.0590   4.0597   4.2959   4.2967   4.3827   4.3848   4.5091
     4.5120   4.5312   4.5341   4.6448   4.8613   5.3227   5.3372   5.4356
     5.4406   5.4858   5.6179   5.6208   5.6301   5.6921   5.7091   5.7355
     5.7381   5.7891   5.7898   5.8327   5.9827   6.0449   6.0918   6.1014
     6.1172   6.1236   6.1294   6.1311   6.1410   6.1425   6.1663   6.1948

          k = 0.2500 0.2500-0.2500 (167588 PWs)   bands (ev):

   -19.3434  -7.1588  -6.8340  -6.3055  -6.3052  -5.8758  -5.4668  -5.3736
    -5.3734  -5.1775  -5.1775  -5.0598  -5.0594  -4.9811  -4.9581  -4.8851
    -4.8002  -4.7964  -4.7575  -4.7574  -4.5966  -4.5799  -4.5788  -4.5786
    -4.5717  -4.5159  -4.5159  -4.5040  -4.5039  -4.4670  -4.4544  -4.4541
    -4.4122  -4.4121  -4.3787  -4.3775  -4.3256  -4.3253  -4.3145  -4.3135
    -4.3081  -4.2949  -4.2949  -4.2536  -4.2356  -4.2355  -4.2285  -4.2284
    -4.1962  -4.1465  -4.1314  -4.1312  -4.1275  -4.1272  -4.1195  -4.1139
    -4.1135  -4.1134  -4.0484  -4.0481  -3.9985  -3.9983  -3.9859  -3.9599
    -3.9598  -3.9400  -3.9374  -3.9368  -3.9326  -3.9296  -3.8807  -3.8807
    -3.8676  -3.8674  -3.7623  -3.7621  -3.7562  -3.7559  -3.7186  -3.7094
    -3.6954  -3.6654  -3.6653  -3.6367  -3.6365  -3.6149  -3.6147  -3.6011
    -3.6009  -3.5462  -3.5461  -3.5277  -3.5121  -3.5006  -3.4992  -3.4990
    -3.4977  -3.4706  -3.4704  -3.4341  -3.4340  -3.4116  -3.4114  -3.3792
    -3.3784  -3.3707  -3.3600  -3.3325  -3.3325  -3.2952  -3.2950  -3.2596
    -3.2522  -3.2514  -3.2374  -3.2372  -3.2322  -3.2322  -3.1935  -3.1835
    -3.1427  -3.1426  -3.1348  -3.1253  -3.1245  -3.1231  -3.0987  -3.0987
    -3.0775  -3.0771  -3.0766  -3.0499  -3.0498  -3.0423  -3.0395  -3.0394
    -3.0034  -2.9990  -2.9638  -2.9636  -2.9627  -2.9598  -2.9597  -2.8807
    -2.8706  -2.8663  -2.8660  -2.8646  -2.8645  -2.8597  -2.8594  -2.8592
    -2.8589  -2.8495  -2.8417  -2.8247  -2.8219  -2.8214  -2.8211  -2.8064
    -2.8018  -2.7636  -2.7629  -2.7627  -2.7587  -2.7584  -2.7402  -2.7400
    -2.7312  -2.7311  -2.7289  -2.6693  -2.6693  -2.6639  -2.6639  -2.6589
    -2.6587  -2.6306  -2.5715  -2.5703  -2.5699  -2.5681  -2.5567  -2.5545
    -2.5498  -2.5387  -2.5386  -2.5018  -2.5014  -2.4926  -2.4923  -2.4918
    -2.4915  -2.4520  -2.4519  -2.4420  -2.4420  -2.4404  -2.4402  -2.3985
    -2.3825  -2.3770  -2.3234  -2.3233  -2.3049  -2.3032  -2.2980  -2.2979
    -2.2492  -2.2488  -2.2255  -2.2092  -2.1949  -2.1942  -2.1938  -2.1720
    -2.1719  -2.1622  -2.1459  -2.1045  -2.1042  -2.0907  -2.0905  -2.0901
    -2.0791  -2.0789  -2.0635  -2.0633  -2.0628  -2.0589  -2.0540  -2.0539
    -2.0534  -2.0413  -2.0411  -2.0234  -2.0232  -2.0211  -2.0150  -2.0120
    -2.0118  -1.9881  -1.9879  -1.9767  -1.9745  -1.9704  -1.9698  -1.9316
    -1.8977  -1.8974  -1.8619  -1.8447  -1.8445  -1.8340  -1.8335  -1.8104
    -1.8100  -1.7955  -1.7951  -1.7937  -1.7934  -1.7907  -1.7902  -1.7579
    -1.7578  -1.7576  -1.7117  -1.7113  -1.6717  -1.6714  -1.6246  -1.6240
    -1.6121  -1.5891  -1.5844  -1.5816  -1.5658  -1.5634  -1.5466  -1.5457
    -1.5418  -1.5406  -1.5393  -1.5388  -1.5384  -1.5358  -1.5167  -1.5155
    -1.5079  -1.4876  -1.4687  -1.4687  -1.4460  -1.4423  -1.4421  -1.4391
    -1.4386  -1.4333  -1.4183  -1.4112  -1.4022  -1.3960  -1.3858  -1.3730
    -1.3624  -1.3592  -1.3458  -1.3282  -1.3280  -1.3200  -1.3136  -1.2844
    -1.2822  -1.2759  -1.2747  -1.2671  -1.2655  -1.2455  -1.2452  -1.2334
    -1.2266  -1.2262  -1.2134  -1.2131  -1.2125  -1.2104  -1.1981  -1.1877
    -1.1869  -1.1796  -1.1795  -1.1669  -1.1629  -1.1613  -1.1560  -1.1168
    -1.1143  -1.1090  -1.1077  -1.1071  -1.1056  -1.0673  -1.0505  -1.0502
    -1.0498  -1.0490  -1.0452  -1.0442  -1.0401  -1.0267  -1.0250  -0.9883
    -0.9878  -0.9811  -0.9810  -0.9581  -0.9580  -0.9482  -0.9184  -0.9107
    -0.8834  -0.8831  -0.8553  -0.8552  -0.8524  -0.8512  -0.8506  -0.8465
    -0.8423  -0.8411  -0.8366  -0.8364  -0.8043  -0.8042  -0.7862  -0.7850
    -0.7808  -0.7805  -0.7790  -0.7781  -0.7601  -0.4834  -0.4745  -0.4182
    -0.4163  -0.3787  -0.2180  -0.1529  -0.1526  -0.1210   0.1662   0.1666
     0.4962   0.4973   0.5953   0.5954   0.6364   0.6369   0.7796   0.7807
     0.9041   0.9058   0.9925   1.5913   1.6094   1.6103   1.6492   1.6546
     1.6979   1.7001   1.7794   1.7801   1.9869   1.9872   2.2209   2.3017
     2.3029   2.3181   2.6976   2.6997   2.7726   2.7734   2.7798   2.7802
     2.9312   2.9323   2.9754   3.0742   3.0757   3.3059   3.3095   3.4417
     3.4688   3.4694   3.7395   3.7405   3.8527   3.8723   3.8724   3.9213
     3.9472   4.0590   4.0597   4.2959   4.2967   4.3827   4.3848   4.5091
     4.5120   4.5312   4.5341   4.6447   4.8580   5.3225   5.3352   5.4330
     5.4401   5.4722   5.6195   5.6210   5.6526   5.6908   5.7336   5.7353
     5.7428   5.7890   5.7898   5.8325   6.0276   6.0504   6.0670   6.1008
     6.1134   6.1198   6.1305   6.1320   6.1410   6.1425   6.1777   6.1900

          k =-0.2500-0.2500 0.0833 (167653 PWs)   bands (ev):

   -19.3434  -7.1588  -6.8340  -6.3055  -6.3052  -5.8758  -5.4668  -5.3736
    -5.3734  -5.1775  -5.1775  -5.0598  -5.0594  -4.9811  -4.9581  -4.8851
    -4.8002  -4.7965  -4.7575  -4.7574  -4.5966  -4.5799  -4.5788  -4.5786
    -4.5717  -4.5159  -4.5159  -4.5040  -4.5039  -4.4670  -4.4544  -4.4541
    -4.4122  -4.4121  -4.3787  -4.3775  -4.3256  -4.3253  -4.3145  -4.3135
    -4.3081  -4.2949  -4.2949  -4.2536  -4.2356  -4.2355  -4.2285  -4.2284
    -4.1962  -4.1465  -4.1314  -4.1312  -4.1275  -4.1272  -4.1195  -4.1139
    -4.1135  -4.1134  -4.0484  -4.0481  -3.9985  -3.9983  -3.9859  -3.9599
    -3.9598  -3.9400  -3.9374  -3.9368  -3.9326  -3.9296  -3.8807  -3.8807
    -3.8676  -3.8674  -3.7623  -3.7621  -3.7562  -3.7559  -3.7186  -3.7094
    -3.6954  -3.6654  -3.6653  -3.6367  -3.6365  -3.6149  -3.6147  -3.6011
    -3.6009  -3.5462  -3.5461  -3.5277  -3.5121  -3.5006  -3.4992  -3.4990
    -3.4977  -3.4706  -3.4704  -3.4342  -3.4341  -3.4116  -3.4114  -3.3792
    -3.3784  -3.3707  -3.3600  -3.3325  -3.3325  -3.2952  -3.2950  -3.2596
    -3.2522  -3.2514  -3.2374  -3.2372  -3.2322  -3.2322  -3.1934  -3.1835
    -3.1427  -3.1426  -3.1348  -3.1253  -3.1245  -3.1231  -3.0987  -3.0987
    -3.0775  -3.0771  -3.0766  -3.0499  -3.0498  -3.0423  -3.0395  -3.0394
    -3.0034  -2.9990  -2.9638  -2.9636  -2.9627  -2.9598  -2.9597  -2.8806
    -2.8706  -2.8663  -2.8660  -2.8646  -2.8645  -2.8597  -2.8594  -2.8592
    -2.8589  -2.8495  -2.8417  -2.8247  -2.8219  -2.8214  -2.8211  -2.8064
    -2.8018  -2.7636  -2.7629  -2.7627  -2.7587  -2.7584  -2.7402  -2.7400
    -2.7312  -2.7311  -2.7289  -2.6693  -2.6693  -2.6639  -2.6639  -2.6589
    -2.6587  -2.6306  -2.5715  -2.5703  -2.5699  -2.5681  -2.5567  -2.5545
    -2.5498  -2.5387  -2.5386  -2.5018  -2.5014  -2.4926  -2.4923  -2.4918
    -2.4915  -2.4520  -2.4518  -2.4421  -2.4420  -2.4404  -2.4402  -2.3985
    -2.3825  -2.3770  -2.3234  -2.3233  -2.3049  -2.3032  -2.2980  -2.2979
    -2.2492  -2.2488  -2.2255  -2.2092  -2.1949  -2.1942  -2.1938  -2.1720
    -2.1719  -2.1622  -2.1459  -2.1046  -2.1042  -2.0907  -2.0905  -2.0901
    -2.0791  -2.0789  -2.0635  -2.0633  -2.0628  -2.0589  -2.0540  -2.0539
    -2.0534  -2.0413  -2.0411  -2.0234  -2.0232  -2.0211  -2.0150  -2.0120
    -2.0118  -1.9881  -1.9879  -1.9767  -1.9745  -1.9704  -1.9698  -1.9316
    -1.8977  -1.8974  -1.8619  -1.8447  -1.8445  -1.8340  -1.8335  -1.8104
    -1.8100  -1.7955  -1.7951  -1.7937  -1.7934  -1.7907  -1.7902  -1.7579
    -1.7578  -1.7576  -1.7117  -1.7113  -1.6716  -1.6714  -1.6246  -1.6240
    -1.6121  -1.5891  -1.5844  -1.5816  -1.5658  -1.5634  -1.5466  -1.5457
    -1.5418  -1.5406  -1.5393  -1.5388  -1.5384  -1.5358  -1.5167  -1.5155
    -1.5078  -1.4876  -1.4687  -1.4687  -1.4460  -1.4423  -1.4421  -1.4391
    -1.4386  -1.4333  -1.4184  -1.4112  -1.4022  -1.3960  -1.3858  -1.3730
    -1.3624  -1.3592  -1.3458  -1.3281  -1.3280  -1.3200  -1.3137  -1.2844
    -1.2822  -1.2759  -1.2747  -1.2671  -1.2655  -1.2455  -1.2452  -1.2334
    -1.2266  -1.2262  -1.2134  -1.2131  -1.2125  -1.2104  -1.1981  -1.1877
    -1.1869  -1.1796  -1.1795  -1.1669  -1.1629  -1.1613  -1.1560  -1.1168
    -1.1143  -1.1089  -1.1077  -1.1071  -1.1056  -1.0673  -1.0505  -1.0502
    -1.0498  -1.0490  -1.0452  -1.0442  -1.0401  -1.0267  -1.0250  -0.9883
    -0.9878  -0.9811  -0.9810  -0.9581  -0.9580  -0.9482  -0.9184  -0.9107
    -0.8834  -0.8831  -0.8553  -0.8552  -0.8524  -0.8512  -0.8506  -0.8465
    -0.8423  -0.8411  -0.8366  -0.8364  -0.8043  -0.8042  -0.7862  -0.7850
    -0.7808  -0.7805  -0.7790  -0.7781  -0.7601  -0.4834  -0.4745  -0.4182
    -0.4163  -0.3787  -0.2180  -0.1529  -0.1526  -0.1210   0.1662   0.1666
     0.4962   0.4973   0.5953   0.5954   0.6364   0.6369   0.7796   0.7807
     0.9041   0.9058   0.9925   1.5913   1.6094   1.6103   1.6492   1.6546
     1.6979   1.7001   1.7794   1.7801   1.9869   1.9872   2.2209   2.3017
     2.3029   2.3181   2.6976   2.6997   2.7726   2.7734   2.7798   2.7802
     2.9312   2.9323   2.9753   3.0742   3.0756   3.3059   3.3095   3.4417
     3.4688   3.4694   3.7395   3.7405   3.8527   3.8723   3.8724   3.9212
     3.9471   4.0590   4.0597   4.2959   4.2967   4.3827   4.3848   4.5091
     4.5120   4.5312   4.5341   4.6449   4.8610   5.3230   5.3383   5.4351
     5.4405   5.4782   5.6191   5.6209   5.6402   5.6953   5.7076   5.7354
     5.7382   5.7891   5.7898   5.8327   5.9844   6.0413   6.0885   6.1009
     6.1170   6.1225   6.1296   6.1313   6.1410   6.1424   6.1500   6.1942

          k =-0.2500 0.2500-0.0833 (167653 PWs)   bands (ev):

   -19.3434  -7.1588  -6.8340  -6.3058  -6.3049  -5.8758  -5.4668  -5.3739
    -5.3731  -5.1776  -5.1774  -5.0602  -5.0589  -4.9811  -4.9581  -4.8851
    -4.8002  -4.7964  -4.7576  -4.7573  -4.5966  -4.5799  -4.5790  -4.5784
    -4.5717  -4.5160  -4.5158  -4.5042  -4.5037  -4.4670  -4.4547  -4.4537
    -4.4122  -4.4121  -4.3787  -4.3775  -4.3259  -4.3249  -4.3145  -4.3135
    -4.3081  -4.2950  -4.2949  -4.2537  -4.2357  -4.2354  -4.2287  -4.2283
    -4.1963  -4.1466  -4.1316  -4.1310  -4.1276  -4.1270  -4.1195  -4.1139
    -4.1135  -4.1133  -4.0489  -4.0476  -3.9988  -3.9979  -3.9860  -3.9600
    -3.9597  -3.9400  -3.9374  -3.9369  -3.9326  -3.9296  -3.8807  -3.8807
    -3.8678  -3.8672  -3.7627  -3.7618  -3.7565  -3.7555  -3.7186  -3.7094
    -3.6954  -3.6655  -3.6652  -3.6369  -3.6363  -3.6151  -3.6145  -3.6015
    -3.6006  -3.5463  -3.5459  -3.5278  -3.5121  -3.5007  -3.4993  -3.4989
    -3.4976  -3.4707  -3.4703  -3.4343  -3.4340  -3.4119  -3.4110  -3.3793
    -3.3781  -3.3708  -3.3600  -3.3326  -3.3323  -3.2953  -3.2949  -3.2596
    -3.2522  -3.2514  -3.2376  -3.2370  -3.2323  -3.2321  -3.1934  -3.1835
    -3.1427  -3.1426  -3.1348  -3.1253  -3.1245  -3.1231  -3.0988  -3.0987
    -3.0776  -3.0772  -3.0763  -3.0499  -3.0498  -3.0423  -3.0396  -3.0393
    -3.0034  -2.9990  -2.9641  -2.9633  -2.9627  -2.9599  -2.9596  -2.8807
    -2.8706  -2.8665  -2.8657  -2.8648  -2.8642  -2.8598  -2.8594  -2.8593
    -2.8587  -2.8495  -2.8417  -2.8247  -2.8220  -2.8218  -2.8208  -2.8064
    -2.8018  -2.7636  -2.7630  -2.7627  -2.7590  -2.7581  -2.7404  -2.7399
    -2.7313  -2.7311  -2.7289  -2.6694  -2.6692  -2.6639  -2.6638  -2.6591
    -2.6585  -2.6306  -2.5715  -2.5703  -2.5699  -2.5681  -2.5567  -2.5545
    -2.5498  -2.5389  -2.5384  -2.5022  -2.5010  -2.4931  -2.4922  -2.4918
    -2.4912  -2.4523  -2.4516  -2.4421  -2.4419  -2.4407  -2.4400  -2.3984
    -2.3825  -2.3769  -2.3236  -2.3231  -2.3048  -2.3032  -2.2982  -2.2977
    -2.2497  -2.2483  -2.2255  -2.2091  -2.1950  -2.1942  -2.1938  -2.1720
    -2.1718  -2.1622  -2.1459  -2.1048  -2.1040  -2.0909  -2.0904  -2.0898
    -2.0793  -2.0787  -2.0636  -2.0634  -2.0628  -2.0589  -2.0544  -2.0539
    -2.0528  -2.0415  -2.0409  -2.0234  -2.0231  -2.0211  -2.0150  -2.0122
    -2.0116  -1.9883  -1.9877  -1.9767  -1.9745  -1.9706  -1.9695  -1.9316
    -1.8979  -1.8972  -1.8619  -1.8448  -1.8444  -1.8345  -1.8331  -1.8107
    -1.8096  -1.7960  -1.7947  -1.7937  -1.7934  -1.7912  -1.7897  -1.7581
    -1.7577  -1.7574  -1.7118  -1.7112  -1.6719  -1.6712  -1.6247  -1.6240
    -1.6120  -1.5892  -1.5844  -1.5816  -1.5658  -1.5634  -1.5466  -1.5457
    -1.5418  -1.5406  -1.5395  -1.5387  -1.5384  -1.5358  -1.5167  -1.5156
    -1.5079  -1.4877  -1.4688  -1.4686  -1.4461  -1.4423  -1.4421  -1.4394
    -1.4383  -1.4333  -1.4182  -1.4114  -1.4015  -1.3963  -1.3858  -1.3730
    -1.3624  -1.3591  -1.3461  -1.3284  -1.3277  -1.3201  -1.3136  -1.2844
    -1.2818  -1.2761  -1.2746  -1.2673  -1.2656  -1.2456  -1.2451  -1.2334
    -1.2268  -1.2260  -1.2135  -1.2130  -1.2126  -1.2103  -1.1981  -1.1876
    -1.1869  -1.1797  -1.1794  -1.1669  -1.1629  -1.1613  -1.1560  -1.1168
    -1.1140  -1.1090  -1.1077  -1.1072  -1.1057  -1.0673  -1.0512  -1.0499
    -1.0496  -1.0488  -1.0457  -1.0436  -1.0401  -1.0266  -1.0250  -0.9885
    -0.9876  -0.9811  -0.9809  -0.9583  -0.9578  -0.9482  -0.9184  -0.9108
    -0.8837  -0.8828  -0.8554  -0.8551  -0.8524  -0.8512  -0.8506  -0.8465
    -0.8423  -0.8411  -0.8368  -0.8361  -0.8045  -0.8040  -0.7871  -0.7843
    -0.7809  -0.7802  -0.7789  -0.7781  -0.7601  -0.4834  -0.4745  -0.4199
    -0.4146  -0.3787  -0.2179  -0.1532  -0.1523  -0.1211   0.1660   0.1669
     0.4945   0.4990   0.5953   0.5955   0.6357   0.6378   0.7792   0.7812
     0.9041   0.9058   0.9926   1.5912   1.6095   1.6102   1.6486   1.6546
     1.6935   1.7049   1.7792   1.7804   1.9868   1.9873   2.2207   2.2996
     2.3047   2.3181   2.6934   2.7034   2.7724   2.7738   2.7794   2.7806
     2.9314   2.9321   2.9745   3.0746   3.0770   3.3058   3.3108   3.4415
     3.4685   3.4695   3.7388   3.7415   3.8515   3.8723   3.8725   3.9138
     3.9552   4.0581   4.0607   4.2963   4.2966   4.3798   4.3867   4.5077
     4.5129   4.5254   4.5379   4.6488   4.8579   5.3157   5.3434   5.4373
     5.4419   5.4824   5.6192   5.6215   5.6280   5.6926   5.7126   5.7344
     5.7390   5.7893   5.7901   5.8336   5.9821   6.0436   6.0940   6.1020
     6.1154   6.1182   6.1279   6.1336   6.1408   6.1410   6.1591   6.1965

          k = 0.2500-0.2500-0.0833 (167653 PWs)   bands (ev):

   -19.3434  -7.1588  -6.8340  -6.3058  -6.3049  -5.8758  -5.4668  -5.3739
    -5.3731  -5.1776  -5.1774  -5.0602  -5.0589  -4.9811  -4.9581  -4.8851
    -4.8002  -4.7964  -4.7576  -4.7573  -4.5966  -4.5799  -4.5790  -4.5784
    -4.5717  -4.5160  -4.5158  -4.5042  -4.5037  -4.4670  -4.4547  -4.4537
    -4.4122  -4.4121  -4.3787  -4.3775  -4.3259  -4.3249  -4.3145  -4.3135
    -4.3081  -4.2950  -4.2949  -4.2537  -4.2357  -4.2354  -4.2287  -4.2283
    -4.1963  -4.1466  -4.1316  -4.1310  -4.1276  -4.1270  -4.1195  -4.1139
    -4.1135  -4.1133  -4.0489  -4.0476  -3.9988  -3.9979  -3.9860  -3.9600
    -3.9597  -3.9400  -3.9374  -3.9369  -3.9326  -3.9296  -3.8807  -3.8807
    -3.8678  -3.8672  -3.7627  -3.7618  -3.7565  -3.7555  -3.7186  -3.7094
    -3.6954  -3.6655  -3.6652  -3.6369  -3.6363  -3.6151  -3.6145  -3.6015
    -3.6006  -3.5463  -3.5459  -3.5278  -3.5121  -3.5007  -3.4993  -3.4989
    -3.4976  -3.4707  -3.4703  -3.4343  -3.4340  -3.4119  -3.4110  -3.3793
    -3.3781  -3.3708  -3.3600  -3.3326  -3.3323  -3.2953  -3.2949  -3.2596
    -3.2522  -3.2514  -3.2376  -3.2370  -3.2323  -3.2321  -3.1934  -3.1835
    -3.1427  -3.1426  -3.1348  -3.1253  -3.1245  -3.1231  -3.0988  -3.0987
    -3.0776  -3.0772  -3.0763  -3.0499  -3.0498  -3.0423  -3.0396  -3.0393
    -3.0034  -2.9990  -2.9641  -2.9633  -2.9627  -2.9599  -2.9596  -2.8807
    -2.8706  -2.8665  -2.8657  -2.8648  -2.8642  -2.8598  -2.8594  -2.8593
    -2.8587  -2.8495  -2.8417  -2.8247  -2.8220  -2.8218  -2.8208  -2.8064
    -2.8018  -2.7636  -2.7630  -2.7627  -2.7590  -2.7581  -2.7404  -2.7399
    -2.7313  -2.7311  -2.7289  -2.6694  -2.6692  -2.6639  -2.6638  -2.6591
    -2.6585  -2.6306  -2.5715  -2.5703  -2.5699  -2.5681  -2.5567  -2.5545
    -2.5498  -2.5389  -2.5384  -2.5022  -2.5010  -2.4931  -2.4922  -2.4918
    -2.4912  -2.4523  -2.4516  -2.4421  -2.4419  -2.4407  -2.4400  -2.3984
    -2.3825  -2.3769  -2.3236  -2.3231  -2.3048  -2.3032  -2.2982  -2.2977
    -2.2497  -2.2483  -2.2255  -2.2091  -2.1950  -2.1942  -2.1938  -2.1720
    -2.1718  -2.1622  -2.1459  -2.1048  -2.1040  -2.0909  -2.0904  -2.0898
    -2.0793  -2.0787  -2.0636  -2.0634  -2.0628  -2.0589  -2.0544  -2.0539
    -2.0528  -2.0415  -2.0409  -2.0234  -2.0231  -2.0211  -2.0150  -2.0122
    -2.0116  -1.9883  -1.9877  -1.9767  -1.9745  -1.9706  -1.9695  -1.9316
    -1.8979  -1.8972  -1.8619  -1.8448  -1.8444  -1.8345  -1.8331  -1.8107
    -1.8096  -1.7960  -1.7947  -1.7937  -1.7934  -1.7912  -1.7897  -1.7581
    -1.7577  -1.7574  -1.7118  -1.7112  -1.6719  -1.6712  -1.6247  -1.6240
    -1.6120  -1.5892  -1.5844  -1.5816  -1.5658  -1.5634  -1.5466  -1.5457
    -1.5418  -1.5406  -1.5395  -1.5387  -1.5384  -1.5358  -1.5167  -1.5156
    -1.5079  -1.4877  -1.4688  -1.4686  -1.4461  -1.4423  -1.4421  -1.4394
    -1.4383  -1.4333  -1.4182  -1.4114  -1.4015  -1.3963  -1.3858  -1.3730
    -1.3624  -1.3591  -1.3461  -1.3284  -1.3277  -1.3201  -1.3136  -1.2844
    -1.2818  -1.2761  -1.2746  -1.2673  -1.2656  -1.2456  -1.2451  -1.2334
    -1.2268  -1.2260  -1.2135  -1.2130  -1.2126  -1.2103  -1.1981  -1.1876
    -1.1869  -1.1797  -1.1794  -1.1669  -1.1629  -1.1613  -1.1560  -1.1168
    -1.1140  -1.1090  -1.1077  -1.1072  -1.1057  -1.0673  -1.0512  -1.0499
    -1.0496  -1.0488  -1.0457  -1.0436  -1.0401  -1.0266  -1.0250  -0.9885
    -0.9876  -0.9811  -0.9809  -0.9583  -0.9578  -0.9482  -0.9184  -0.9108
    -0.8837  -0.8828  -0.8554  -0.8551  -0.8524  -0.8512  -0.8506  -0.8465
    -0.8423  -0.8411  -0.8368  -0.8361  -0.8045  -0.8040  -0.7871  -0.7843
    -0.7809  -0.7802  -0.7789  -0.7781  -0.7601  -0.4834  -0.4745  -0.4199
    -0.4146  -0.3787  -0.2179  -0.1532  -0.1523  -0.1211   0.1660   0.1669
     0.4945   0.4990   0.5953   0.5955   0.6357   0.6378   0.7792   0.7812
     0.9041   0.9058   0.9926   1.5912   1.6095   1.6102   1.6486   1.6546
     1.6935   1.7049   1.7792   1.7804   1.9868   1.9873   2.2207   2.2996
     2.3047   2.3181   2.6934   2.7034   2.7724   2.7738   2.7794   2.7806
     2.9314   2.9321   2.9745   3.0746   3.0770   3.3058   3.3108   3.4415
     3.4685   3.4695   3.7388   3.7415   3.8515   3.8723   3.8725   3.9138
     3.9552   4.0581   4.0607   4.2963   4.2966   4.3798   4.3867   4.5077
     4.5129   4.5254   4.5379   4.6489   4.8579   5.3160   5.3431   5.4367
     5.4419   5.4797   5.6199   5.6214   5.6358   5.6940   5.7081   5.7339
     5.7388   5.7893   5.7901   5.8336   5.9830   6.0358   6.0946   6.1025
     6.1150   6.1188   6.1280   6.1336   6.1406   6.1410   6.1610   6.2039

          k =-0.2500 0.2500 0.2500 (167588 PWs)   bands (ev):

   -19.3434  -7.1588  -6.8340  -6.3058  -6.3049  -5.8758  -5.4668  -5.3739
    -5.3731  -5.1776  -5.1774  -5.0602  -5.0589  -4.9811  -4.9581  -4.8851
    -4.8002  -4.7964  -4.7576  -4.7573  -4.5966  -4.5799  -4.5790  -4.5784
    -4.5717  -4.5160  -4.5158  -4.5042  -4.5037  -4.4670  -4.4547  -4.4537
    -4.4122  -4.4121  -4.3787  -4.3775  -4.3259  -4.3249  -4.3146  -4.3135
    -4.3081  -4.2950  -4.2949  -4.2537  -4.2357  -4.2354  -4.2287  -4.2283
    -4.1963  -4.1466  -4.1316  -4.1310  -4.1276  -4.1270  -4.1195  -4.1139
    -4.1135  -4.1133  -4.0488  -4.0476  -3.9988  -3.9979  -3.9860  -3.9600
    -3.9597  -3.9399  -3.9374  -3.9369  -3.9326  -3.9296  -3.8807  -3.8807
    -3.8678  -3.8672  -3.7627  -3.7618  -3.7565  -3.7555  -3.7186  -3.7094
    -3.6954  -3.6655  -3.6652  -3.6369  -3.6363  -3.6151  -3.6145  -3.6015
    -3.6006  -3.5463  -3.5459  -3.5278  -3.5121  -3.5007  -3.4993  -3.4989
    -3.4976  -3.4707  -3.4703  -3.4343  -3.4340  -3.4119  -3.4110  -3.3793
    -3.3781  -3.3708  -3.3600  -3.3326  -3.3323  -3.2953  -3.2949  -3.2596
    -3.2522  -3.2514  -3.2376  -3.2370  -3.2323  -3.2321  -3.1935  -3.1835
    -3.1427  -3.1426  -3.1348  -3.1253  -3.1245  -3.1231  -3.0988  -3.0987
    -3.0776  -3.0772  -3.0763  -3.0499  -3.0498  -3.0423  -3.0396  -3.0393
    -3.0034  -2.9990  -2.9641  -2.9633  -2.9627  -2.9599  -2.9596  -2.8807
    -2.8706  -2.8665  -2.8657  -2.8648  -2.8642  -2.8598  -2.8594  -2.8593
    -2.8587  -2.8495  -2.8417  -2.8247  -2.8219  -2.8218  -2.8208  -2.8064
    -2.8018  -2.7636  -2.7629  -2.7627  -2.7590  -2.7581  -2.7404  -2.7399
    -2.7313  -2.7311  -2.7289  -2.6694  -2.6692  -2.6639  -2.6638  -2.6591
    -2.6585  -2.6306  -2.5715  -2.5703  -2.5699  -2.5681  -2.5567  -2.5545
    -2.5498  -2.5389  -2.5384  -2.5022  -2.5010  -2.4931  -2.4922  -2.4918
    -2.4912  -2.4523  -2.4516  -2.4421  -2.4419  -2.4407  -2.4400  -2.3984
    -2.3825  -2.3769  -2.3236  -2.3231  -2.3048  -2.3033  -2.2982  -2.2977
    -2.2497  -2.2483  -2.2255  -2.2092  -2.1950  -2.1942  -2.1938  -2.1720
    -2.1718  -2.1622  -2.1459  -2.1048  -2.1040  -2.0909  -2.0904  -2.0898
    -2.0793  -2.0787  -2.0636  -2.0634  -2.0628  -2.0589  -2.0544  -2.0539
    -2.0528  -2.0415  -2.0409  -2.0234  -2.0231  -2.0211  -2.0150  -2.0122
    -2.0116  -1.9883  -1.9877  -1.9767  -1.9745  -1.9706  -1.9695  -1.9316
    -1.8979  -1.8972  -1.8619  -1.8448  -1.8444  -1.8345  -1.8331  -1.8107
    -1.8096  -1.7960  -1.7947  -1.7937  -1.7934  -1.7912  -1.7897  -1.7581
    -1.7577  -1.7574  -1.7118  -1.7112  -1.6719  -1.6712  -1.6247  -1.6240
    -1.6121  -1.5892  -1.5844  -1.5816  -1.5658  -1.5634  -1.5466  -1.5457
    -1.5418  -1.5406  -1.5395  -1.5387  -1.5384  -1.5358  -1.5168  -1.5156
    -1.5079  -1.4877  -1.4688  -1.4686  -1.4461  -1.4423  -1.4421  -1.4394
    -1.4383  -1.4333  -1.4182  -1.4114  -1.4015  -1.3963  -1.3858  -1.3730
    -1.3624  -1.3591  -1.3461  -1.3284  -1.3277  -1.3201  -1.3136  -1.2844
    -1.2817  -1.2761  -1.2746  -1.2673  -1.2656  -1.2456  -1.2451  -1.2334
    -1.2268  -1.2260  -1.2135  -1.2130  -1.2126  -1.2103  -1.1981  -1.1876
    -1.1869  -1.1797  -1.1794  -1.1669  -1.1629  -1.1613  -1.1560  -1.1168
    -1.1140  -1.1090  -1.1077  -1.1072  -1.1056  -1.0673  -1.0511  -1.0499
    -1.0496  -1.0488  -1.0457  -1.0436  -1.0401  -1.0266  -1.0250  -0.9885
    -0.9876  -0.9811  -0.9809  -0.9583  -0.9578  -0.9482  -0.9184  -0.9108
    -0.8837  -0.8828  -0.8554  -0.8551  -0.8524  -0.8512  -0.8506  -0.8465
    -0.8424  -0.8411  -0.8368  -0.8361  -0.8045  -0.8040  -0.7871  -0.7843
    -0.7809  -0.7802  -0.7789  -0.7781  -0.7601  -0.4834  -0.4745  -0.4199
    -0.4146  -0.3787  -0.2179  -0.1531  -0.1523  -0.1211   0.1660   0.1669
     0.4945   0.4990   0.5953   0.5955   0.6357   0.6378   0.7792   0.7812
     0.9041   0.9058   0.9926   1.5912   1.6095   1.6102   1.6486   1.6546
     1.6935   1.7049   1.7792   1.7804   1.9868   1.9873   2.2207   2.2996
     2.3047   2.3181   2.6934   2.7034   2.7724   2.7738   2.7794   2.7806
     2.9314   2.9321   2.9745   3.0746   3.0770   3.3058   3.3108   3.4415
     3.4685   3.4695   3.7388   3.7415   3.8515   3.8723   3.8725   3.9139
     3.9552   4.0581   4.0607   4.2963   4.2966   4.3798   4.3867   4.5077
     4.5129   4.5254   4.5379   4.6488   4.8547   5.3145   5.3421   5.4357
     5.4408   5.4706   5.6200   5.6215   5.6488   5.6912   5.7305   5.7366
     5.7463   5.7894   5.7901   5.8337   6.0232   6.0311   6.0916   6.1013
     6.1154   6.1240   6.1286   6.1339   6.1409   6.1410   6.1701   6.2012

     the Fermi energy is     0.8545 ev

!    total energy              =   -7425.29226976 Ry
     Harris-Foulkes estimate   =   -7425.29226975 Ry
     estimated scf accuracy    <          7.2E-09 Ry

     The total energy is the sum of the following terms:

     one-electron contribution =  -48504.13531752 Ry
     hartree contribution      =   24802.60966585 Ry
     xc contribution           =   -3604.19774840 Ry
     ewald contribution        =   19880.43402593 Ry
     smearing contrib. (-TS)   =      -0.00289562 Ry

     convergence has been achieved in  28 iterations

     Writing output data file 9494865.save

     init_run     :    132.26s CPU    141.56s WALL (       1 calls)
     electrons    :   6785.55s CPU   7848.52s WALL (       1 calls)

     Called by init_run:
     wfcinit      :    103.70s CPU    111.72s WALL (       1 calls)
     potinit      :      7.03s CPU      7.58s WALL (       1 calls)

     Called by electrons:
     c_bands      :   5589.45s CPU   6565.07s WALL (      29 calls)
     sum_band     :    781.00s CPU    850.38s WALL (      29 calls)
     v_of_rho     :    113.46s CPU    125.81s WALL (      29 calls)
     newd         :    310.97s CPU    315.73s WALL (      29 calls)
     mix_rho      :      3.64s CPU      3.97s WALL (      29 calls)
     vdW_energy   :     10.38s CPU     11.79s WALL (      29 calls)
     vdW_ffts     :     55.36s CPU     61.21s WALL (      58 calls)
     vdW_v        :     14.55s CPU     15.48s WALL (      29 calls)

     Called by c_bands:
     init_us_2    :     20.89s CPU     21.26s WALL (     354 calls)
     cegterg      :   5522.05s CPU   6496.65s WALL (     174 calls)

     Called by *egterg:
     h_psi        :   2141.82s CPU   2754.33s WALL (     920 calls)
     s_psi        :    378.71s CPU    380.74s WALL (     920 calls)
     g_psi        :      4.77s CPU      4.81s WALL (     740 calls)
     cdiaghg      :   1641.33s CPU   1645.08s WALL (     908 calls)

     Called by h_psi:
     add_vuspsi   :    380.68s CPU    383.08s WALL (     920 calls)

     General routines
     calbec       :    588.28s CPU    590.29s WALL (    1094 calls)
     fft          :    114.43s CPU    124.65s WALL (    1914 calls)
     ffts         :      1.57s CPU      1.87s WALL (      58 calls)
     fftw         :   1372.92s CPU   1990.99s WALL (  467408 calls)
     interpolate  :      4.57s CPU      5.41s WALL (      58 calls)
     davcio       :      0.00s CPU      0.31s WALL (       6 calls)

     Parallel routines
     fft_scatter  :    910.55s CPU   1438.50s WALL (  469380 calls)

     PWSCF        :     1h55m CPU        2h13m WALL


   This run was terminated on:  10:46:37  31Aug2015            

=------------------------------------------------------------------------------=
   JOB DONE.
=------------------------------------------------------------------------------=
