Setting SGE environment for SCC

     Program PWSCF v.5.1.2 starts on 26Jun2015 at  7: 5:59 

     This program is part of the open-source Quantum ESPRESSO suite
     for quantum simulation of materials; please cite
         "P. Giannozzi et al., J. Phys.:Condens. Matter 21 395502 (2009);
          URL http://www.quantum-espresso.org", 
     in publications or presentations arising from this work. More details at
     http://www.quantum-espresso.org/quote

     Parallel version (MPI), running on    32 processors
     R & G space division:  proc/nbgrp/npool/nimage =      32
     Reading input from top.O1.Au62.d.3.4.phi.45.psi.90.in
Warning: card &IONS ignored
Warning: card / ignored
Warning: card &CELL ignored
Warning: card / ignored

     Current dimensions of program PWSCF are:
     Max number of different atomic species (ntypx) = 10
     Max number of k-points (npk) =  40000
     Max angular momentum in pseudopotentials (lmaxx) =  3

     IMPORTANT: XC functional enforced from input :
     Exchange-correlation      = VDW-DF ( 1  4  4  0 1 0)
     Any further DFT definition will be discarded
     Please, verify this is what you really want


     Subspace diagonalization in iterative solution of the eigenvalue problem:
     a serial algorithm will be used


     Parallelization info
     --------------------
     sticks:   dense  smooth     PW     G-vecs:    dense   smooth      PW
     Min         578     289     74               118518    41891    5486
     Max         579     290     75               118533    41932    5497
     Sum       18505    9265   2385              3792731  1341081  175711


     Title: 
     top.O1.Au62.d.3.4.phi.45.psi.90                                            


     bravais-lattice index     =            8
     lattice parameter (alat)  =      24.1233  a.u.
     unit-cell volume          =   28076.2361 (a.u.)^3
     number of atoms/cell      =           75
     number of atomic types    =            3
     number of electrons       =       800.00
     number of Kohn-Sham states=          480
     kinetic-energy cutoff     =      50.0000  Ry
     charge density cutoff     =     400.0000  Ry
     convergence threshold     =      1.0E-08
     mixing beta               =       0.7000
     number of iterations used =            8  plain     mixing
     Exchange-correlation      = VDW-DF ( 1  4  4  0 1 0)

     celldm(1)=  24.123277  celldm(2)=   1.000000  celldm(3)=   2.000000
     celldm(4)=   0.000000  celldm(5)=   0.000000  celldm(6)=   0.000000

     crystal axes: (cart. coord. in units of alat)
               a(1) = (   1.000000   0.000000   0.000000 )  
               a(2) = (   0.000000   1.000000   0.000000 )  
               a(3) = (   0.000000   0.000000   2.000000 )  

     reciprocal axes: (cart. coord. in units 2 pi/alat)
               b(1) = (  1.000000  0.000000  0.000000 )  
               b(2) = (  0.000000  1.000000  0.000000 )  
               b(3) = (  0.000000  0.000000  0.500000 )  


     PseudoPot. # 1 for Au read from file:
     /home/scc/andrejb/qe/pseudo/Au.pbe-nd-van.UPF
     MD5 check sum: 458681b50f36d87ef23c61b04bba420a
     Pseudo is Ultrasoft + core correction, Zval = 11.0
     Generated by new atomic code, or converted to UPF format
     Using radial grid of  985 points,  3 beta functions with: 
                l(1) =   1
                l(2) =   2
                l(3) =   2
     Q(r) pseudized with  8 coefficients,  rinner =    1.100   1.100   1.100
                                                       1.100   1.100

     PseudoPot. # 2 for H  read from file:
     /home/scc/andrejb/qe/pseudo/H.pbe-van_ak.UPF
     MD5 check sum: 403db7282739603aa925980fa9b8608d
     Pseudo is Ultrasoft, Zval =  1.0
     Generated by new atomic code, or converted to UPF format
     Using radial grid of  615 points,  1 beta functions with: 
                l(1) =   0
     Q(r) pseudized with  8 coefficients,  rinner =    0.800

     PseudoPot. # 3 for O  read from file:
     /home/scc/andrejb/qe/pseudo/O.pbe-van_ak.UPF
     MD5 check sum: 4b8c549914a63cae506c6ff22b5af4fe
     Pseudo is Ultrasoft, Zval =  6.0
     Generated by new atomic code, or converted to UPF format
     Using radial grid of  737 points,  4 beta functions with: 
                l(1) =   0
                l(2) =   0
                l(3) =   1
                l(4) =   1
     Q(r) pseudized with  8 coefficients,  rinner =    0.800   0.800   0.800


     vdW kernel table read from file vdW_kernel_table
     MD5 check sum: 48e77a2e26edf626eeb0eaa751ad5cac

     atomic species   valence    mass     pseudopotential
        Au            11.00   196.96657     Au( 1.00)
        H              1.00     1.01000     H ( 1.00)
        O              6.00    16.00000     O ( 1.00)

     No symmetry found



   Cartesian axes

     site n.     atom                  positions (alat units)
         1           O   tau(   1) = (   0.4998324   0.3332216   0.7656616  )
         2           H   tau(   2) = (   0.4942419   0.2877277   0.7046743  )
         3           H   tau(   3) = (   0.5052408   0.2853639   0.8248125  )
         4           Au  tau(   4) = (   0.0000000   0.0000000   0.0000000  )
         5           Au  tau(   5) = (   0.3332217   0.0000000   0.0000000  )
         6           Au  tau(   6) = (   0.6664435   0.0000000   0.0000000  )
         7           Au  tau(   7) = (   0.1666109   0.1666109   0.0000000  )
         8           Au  tau(   8) = (   0.4998326   0.1666109   0.0000000  )
         9           Au  tau(   9) = (   0.8330542   0.1666109   0.0000000  )
        10           Au  tau(  10) = (   0.0000000   0.3332217   0.0000000  )
        11           Au  tau(  11) = (   0.3332217   0.3332217   0.0000000  )
        12           Au  tau(  12) = (   0.6664435   0.3332217   0.0000000  )
        13           Au  tau(  13) = (   0.1666109   0.4998326   0.0000000  )
        14           Au  tau(  14) = (   0.4998326   0.4998326   0.0000000  )
        15           Au  tau(  15) = (   0.8330542   0.4998326   0.0000000  )
        16           Au  tau(  16) = (   0.0000000   0.6664435   0.0000000  )
        17           Au  tau(  17) = (   0.3332217   0.6664435   0.0000000  )
        18           Au  tau(  18) = (   0.6664435   0.6664435   0.0000000  )
        19           Au  tau(  19) = (   0.1666109   0.8330542   0.0000000  )
        20           Au  tau(  20) = (   0.4998326   0.8330542   0.0000000  )
        21           Au  tau(  21) = (   0.8330542   0.8330542   0.0000000  )
        22           Au  tau(  22) = (   0.1666109   0.0000000   0.1666109  )
        23           Au  tau(  23) = (   0.4998326   0.0000000   0.1666109  )
        24           Au  tau(  24) = (   0.8330542   0.0000000   0.1666109  )
        25           Au  tau(  25) = (   0.0000000   0.1666109   0.1666109  )
        26           Au  tau(  26) = (   0.3332217   0.1666109   0.1666109  )
        27           Au  tau(  27) = (   0.6664435   0.1666109   0.1666109  )
        28           Au  tau(  28) = (   0.1666109   0.3332217   0.1666109  )
        29           Au  tau(  29) = (   0.4998326   0.3332217   0.1666109  )
        30           Au  tau(  30) = (   0.8330542   0.3332217   0.1666109  )
        31           Au  tau(  31) = (   0.0000000   0.4998326   0.1666109  )
        32           Au  tau(  32) = (   0.3332217   0.4998326   0.1666109  )
        33           Au  tau(  33) = (   0.6664435   0.4998326   0.1666109  )
        34           Au  tau(  34) = (   0.1666109   0.6664435   0.1666109  )
        35           Au  tau(  35) = (   0.4998326   0.6664435   0.1666109  )
        36           Au  tau(  36) = (   0.8330542   0.6664435   0.1666109  )
        37           Au  tau(  37) = (   0.0000000   0.8330542   0.1666109  )
        38           Au  tau(  38) = (   0.3332217   0.8330542   0.1666109  )
        39           Au  tau(  39) = (   0.6664435   0.8330542   0.1666109  )
        40           Au  tau(  40) = (  -0.0000182  -0.0000182   0.3335478  )
        41           Au  tau(  41) = (   0.3332215  -0.0000181   0.3335472  )
        42           Au  tau(  42) = (   0.6664447  -0.0000183   0.3335481  )
        43           Au  tau(  43) = (  -0.0000181   0.3332215   0.3335472  )
        44           Au  tau(  44) = (   0.3332215   0.3332215   0.3335468  )
        45           Au  tau(  45) = (   0.6664445   0.3332215   0.3335478  )
        46           Au  tau(  46) = (  -0.0000183   0.6664447   0.3335481  )
        47           Au  tau(  47) = (   0.3332215   0.6664445   0.3335478  )
        48           Au  tau(  48) = (   0.6664446   0.6664446   0.3335486  )
        49           Au  tau(  49) = (   0.1666097   0.1666097   0.3335483  )
        50           Au  tau(  50) = (   0.4998320   0.1666098   0.3335477  )
        51           Au  tau(  51) = (   0.8330732   0.1666096   0.3335481  )
        52           Au  tau(  52) = (   0.1666098   0.4998320   0.3335477  )
        53           Au  tau(  53) = (   0.4998321   0.4998321   0.3335470  )
        54           Au  tau(  54) = (   0.8330730   0.4998322   0.3335474  )
        55           Au  tau(  55) = (   0.1666096   0.8330732   0.3335481  )
        56           Au  tau(  56) = (   0.4998322   0.8330730   0.3335474  )
        57           Au  tau(  57) = (   0.8330731   0.8330731   0.3335478  )
        58           Au  tau(  58) = (   0.1666104  -0.0000111   0.4993095  )
        59           Au  tau(  59) = (   0.4998323  -0.0000112   0.4993099  )
        60           Au  tau(  60) = (   0.8330661  -0.0000111   0.4993009  )
        61           Au  tau(  61) = (  -0.0000111   0.1666104   0.4993095  )
        62           Au  tau(  62) = (   0.3332214   0.1666106   0.4993185  )
        63           Au  tau(  63) = (   0.6664437   0.1666106   0.4993187  )
        64           Au  tau(  64) = (   0.1666106   0.3332214   0.4993185  )
        65           Au  tau(  65) = (   0.4998324   0.3332216   0.4993185  )
        66           Au  tau(  66) = (   0.8330659   0.3332215   0.4993103  )
        67           Au  tau(  67) = (  -0.0000112   0.4998323   0.4993099  )
        68           Au  tau(  68) = (   0.3332216   0.4998324   0.4993185  )
        69           Au  tau(  69) = (   0.6664436   0.4998325   0.4993187  )
        70           Au  tau(  70) = (   0.1666106   0.6664437   0.4993187  )
        71           Au  tau(  71) = (   0.4998325   0.6664436   0.4993187  )
        72           Au  tau(  72) = (   0.8330658   0.6664438   0.4993102  )
        73           Au  tau(  73) = (  -0.0000111   0.8330661   0.4993009  )
        74           Au  tau(  74) = (   0.3332215   0.8330659   0.4993103  )
        75           Au  tau(  75) = (   0.6664438   0.8330658   0.4993102  )

     number of k points=     6  Marzari-Vanderbilt smearing, width (Ry)=  0.0200
                       cart. coord. in units 2pi/alat
        k(    1) = (   0.2500000   0.2500000   0.0833333), wk =   0.3333333
        k(    2) = (   0.2500000   0.2500000  -0.2500000), wk =   0.3333333
        k(    3) = (  -0.2500000  -0.2500000   0.0833333), wk =   0.3333333
        k(    4) = (  -0.2500000   0.2500000  -0.0833333), wk =   0.3333333
        k(    5) = (   0.2500000  -0.2500000  -0.0833333), wk =   0.3333333
        k(    6) = (  -0.2500000   0.2500000   0.2500000), wk =   0.3333333

     Dense  grid:  3792731 G-vectors     FFT dimensions: ( 160, 160, 320)

     Smooth grid:  1341081 G-vectors     FFT dimensions: ( 120, 120, 225)

     Largest allocated arrays     est. size (Mb)     dimensions
        Kohn-Sham Wavefunctions        38.58 Mb     (    5267,  480)
        NL pseudopotentials            76.03 Mb     (    5267,  946)
        Each V/rho on FFT grid          3.91 Mb     (  256000)
        Each G-vector array             0.90 Mb     (  118520)
        G-vector shells                 0.08 Mb     (   10286)
     Largest temporary arrays     est. size (Mb)     dimensions
        Auxiliary wavefunctions       154.31 Mb     (    5267, 1920)
        Each subspace H/S matrix       56.25 Mb     (    1920, 1920)
        Each <psi_i|beta_j> matrix      6.93 Mb     (     946,  480)
        Arrays for rho mixing          31.25 Mb     (  256000,    8)

     Initial potential from superposition of free atoms
     Check: negative starting charge=   -1.945054

     starting charge  799.16392, renormalised to  800.00000

     negative rho (up, down):  1.947E+00 0.000E+00


     ************************************************************************
     *
     * You are using vdW-DF for exchange-correlation in this calculation.
     * Please cite the following three references that made this development
     * possible:
     *
     *   M. Dion, H. Rydberg, E. Schroder, D. C. Langreth, and
     *   B. I. Lundqvist, Phys. Rev. Lett. 92, 246401 (2004).
     *
     *   T. Thonhauser, V. R. Cooper, S. Li, A. Puzder, P. Hyldgaard, and
     *   D. C. Langreth, Phys. Rev. B 76, 125112 (2007).
     *
     *   G. Roman-Perez and J. M. Soler, Phys. Rev. Lett. 103, 096102 (2009).
     *
     *
     * If you are using vdW-DF2, please also cite:
     *
     *   K. Lee, E. D. Murray, L. Kong, B. I. Lundqvist, and
     *   D. C. Langreth, Phys. Rev. B 82, 081101(R) (2010).
     *
     *
     * If you are calculating the stress with vdW-DF, please also cite:
     *
     *   R. Sabatini, E. Kucukbenli, B. Kolb, T. Thonhauser, and
     *   S. de Gironcoli, J. Phys.: Condens. Matter 24, 424209 (2012).
     *
     ************************************************************************

     Carrying out vdW-DF run using the following parameters:

     Nqs =      20    Nr_points =    1024   r_max =   100.000
     q_mesh =
               0.00001000     0.04494208     0.09755937     0.15916263
               0.23128650     0.31572767     0.41458969     0.53033537
               0.66584808     0.82450364     1.01025438     1.22772762
               1.48234092     1.78043706     2.12944203     2.53805004
               3.01644009     3.57652955     4.23227104     5.00000000

     Gradients computed in reciprocal space

     ************************************************************************


     Starting wfc are  654 randomized atomic wfcs

     total cpu time spent up to now is      112.4 secs

     Self-consistent Calculation

     iteration #  1     ecut=    50.00 Ry     beta=0.70
     Davidson diagonalization with overlap
     ethr =  1.00E-02,  avg # of iterations =  3.0

     Threshold (ethr) on eigenvalues was too large:
     Diagonalizing with lowered threshold

     Davidson diagonalization with overlap
     ethr =  4.23E-04,  avg # of iterations =  2.0

     negative rho (up, down):  1.947E+00 0.000E+00

     total cpu time spent up to now is      558.5 secs

     total energy              =   -7423.03213732 Ry
     Harris-Foulkes estimate   =   -7426.07404317 Ry
     estimated scf accuracy    <       3.75822952 Ry

     iteration #  2     ecut=    50.00 Ry     beta=0.70
     Davidson diagonalization with overlap
     ethr =  4.70E-04,  avg # of iterations = 11.3

     negative rho (up, down):  1.943E+00 0.000E+00

     total cpu time spent up to now is     1298.3 secs

     total energy              =   -7415.16427168 Ry
     Harris-Foulkes estimate   =   -7432.62702679 Ry
     estimated scf accuracy    <      90.83758773 Ry

     iteration #  3     ecut=    50.00 Ry     beta=0.70
     Davidson diagonalization with overlap
     ethr =  4.70E-04,  avg # of iterations =  6.0

     negative rho (up, down):  1.953E+00 0.000E+00

     total cpu time spent up to now is     1746.2 secs

     total energy              =   -7424.06709264 Ry
     Harris-Foulkes estimate   =   -7425.88374911 Ry
     estimated scf accuracy    <       7.71291569 Ry

     iteration #  4     ecut=    50.00 Ry     beta=0.70
     Davidson diagonalization with overlap
     ethr =  4.70E-04,  avg # of iterations =  5.8

     negative rho (up, down):  1.956E+00 0.000E+00

     total cpu time spent up to now is     2009.1 secs

     total energy              =   -7424.81952017 Ry
     Harris-Foulkes estimate   =   -7425.67338283 Ry
     estimated scf accuracy    <       4.64229911 Ry

     iteration #  5     ecut=    50.00 Ry     beta=0.70
     Davidson diagonalization with overlap
     ethr =  4.70E-04,  avg # of iterations =  6.3

     negative rho (up, down):  1.963E+00 0.000E+00

     total cpu time spent up to now is     2283.6 secs

     total energy              =   -7425.07699854 Ry
     Harris-Foulkes estimate   =   -7425.58573115 Ry
     estimated scf accuracy    <       3.90164329 Ry

     iteration #  6     ecut=    50.00 Ry     beta=0.70
     Davidson diagonalization with overlap
     ethr =  4.70E-04,  avg # of iterations =  3.0

     negative rho (up, down):  1.967E+00 0.000E+00

     total cpu time spent up to now is     2503.3 secs

     total energy              =   -7425.28172342 Ry
     Harris-Foulkes estimate   =   -7425.33218336 Ry
     estimated scf accuracy    <       0.16922184 Ry

     iteration #  7     ecut=    50.00 Ry     beta=0.70
     Davidson diagonalization with overlap
     ethr =  2.12E-05,  avg # of iterations =  9.3

     negative rho (up, down):  1.970E+00 0.000E+00

     total cpu time spent up to now is     2839.5 secs

     total energy              =   -7425.28175533 Ry
     Harris-Foulkes estimate   =   -7425.33042377 Ry
     estimated scf accuracy    <       0.25457785 Ry

     iteration #  8     ecut=    50.00 Ry     beta=0.70
     Davidson diagonalization with overlap
     ethr =  2.12E-05,  avg # of iterations =  3.0

     negative rho (up, down):  1.971E+00 0.000E+00

     total cpu time spent up to now is     3069.3 secs

     total energy              =   -7425.29203654 Ry
     Harris-Foulkes estimate   =   -7425.31012115 Ry
     estimated scf accuracy    <       0.07574505 Ry

     iteration #  9     ecut=    50.00 Ry     beta=0.70
     Davidson diagonalization with overlap
     ethr =  9.47E-06,  avg # of iterations =  4.8

     negative rho (up, down):  1.972E+00 0.000E+00

     total cpu time spent up to now is     3328.8 secs

     total energy              =   -7425.29185851 Ry
     Harris-Foulkes estimate   =   -7425.30260211 Ry
     estimated scf accuracy    <       0.03746678 Ry

     iteration # 10     ecut=    50.00 Ry     beta=0.70
     Davidson diagonalization with overlap
     ethr =  4.68E-06,  avg # of iterations =  7.0

     negative rho (up, down):  1.973E+00 0.000E+00

     total cpu time spent up to now is     3602.1 secs

     total energy              =   -7425.29258413 Ry
     Harris-Foulkes estimate   =   -7425.29619697 Ry
     estimated scf accuracy    <       0.01135540 Ry

     iteration # 11     ecut=    50.00 Ry     beta=0.70
     Davidson diagonalization with overlap
     ethr =  1.42E-06,  avg # of iterations = 11.7

     negative rho (up, down):  1.974E+00 0.000E+00

     total cpu time spent up to now is     3942.5 secs

     total energy              =   -7425.29265919 Ry
     Harris-Foulkes estimate   =   -7425.29417348 Ry
     estimated scf accuracy    <       0.00541304 Ry

     iteration # 12     ecut=    50.00 Ry     beta=0.70
     Davidson diagonalization with overlap
     ethr =  6.77E-07,  avg # of iterations =  3.2

     negative rho (up, down):  1.975E+00 0.000E+00

     total cpu time spent up to now is     4167.8 secs

     total energy              =   -7425.29187167 Ry
     Harris-Foulkes estimate   =   -7425.29314628 Ry
     estimated scf accuracy    <       0.00186059 Ry

     iteration # 13     ecut=    50.00 Ry     beta=0.70
     Davidson diagonalization with overlap
     ethr =  2.33E-07,  avg # of iterations =  8.5

     negative rho (up, down):  1.974E+00 0.000E+00

     total cpu time spent up to now is     4596.1 secs

     total energy              =   -7425.29129222 Ry
     Harris-Foulkes estimate   =   -7425.29357134 Ry
     estimated scf accuracy    <       0.01035521 Ry

     iteration # 14     ecut=    50.00 Ry     beta=0.70
     Davidson diagonalization with overlap
     ethr =  2.33E-07,  avg # of iterations =  3.0

     negative rho (up, down):  1.974E+00 0.000E+00

     total cpu time spent up to now is     4873.2 secs

     total energy              =   -7425.29225631 Ry
     Harris-Foulkes estimate   =   -7425.29259872 Ry
     estimated scf accuracy    <       0.00153278 Ry

     iteration # 15     ecut=    50.00 Ry     beta=0.70
     Davidson diagonalization with overlap
     ethr =  1.92E-07,  avg # of iterations =  2.0

     negative rho (up, down):  1.974E+00 0.000E+00

     total cpu time spent up to now is     5082.5 secs

     total energy              =   -7425.29237272 Ry
     Harris-Foulkes estimate   =   -7425.29249927 Ry
     estimated scf accuracy    <       0.00052658 Ry

     iteration # 16     ecut=    50.00 Ry     beta=0.70
     Davidson diagonalization with overlap
     ethr =  6.58E-08,  avg # of iterations =  2.0

     negative rho (up, down):  1.974E+00 0.000E+00

     total cpu time spent up to now is     5284.7 secs

     total energy              =   -7425.29235058 Ry
     Harris-Foulkes estimate   =   -7425.29257066 Ry
     estimated scf accuracy    <       0.00188307 Ry

     iteration # 17     ecut=    50.00 Ry     beta=0.70
     Davidson diagonalization with overlap
     ethr =  6.58E-08,  avg # of iterations =  1.7

     negative rho (up, down):  1.974E+00 0.000E+00

     total cpu time spent up to now is     5483.4 secs

     total energy              =   -7425.29245274 Ry
     Harris-Foulkes estimate   =   -7425.29246806 Ry
     estimated scf accuracy    <       0.00004458 Ry

     iteration # 18     ecut=    50.00 Ry     beta=0.70
     Davidson diagonalization with overlap
     ethr =  5.57E-09,  avg # of iterations =  2.0

     negative rho (up, down):  1.974E+00 0.000E+00

     total cpu time spent up to now is     5710.7 secs

     total energy              =   -7425.29245888 Ry
     Harris-Foulkes estimate   =   -7425.29246513 Ry
     estimated scf accuracy    <       0.00002685 Ry

     iteration # 19     ecut=    50.00 Ry     beta=0.70
     Davidson diagonalization with overlap
     ethr =  3.36E-09,  avg # of iterations =  2.0

     negative rho (up, down):  1.974E+00 0.000E+00

     total cpu time spent up to now is     5926.4 secs

     total energy              =   -7425.29246065 Ry
     Harris-Foulkes estimate   =   -7425.29246462 Ry
     estimated scf accuracy    <       0.00001886 Ry

     iteration # 20     ecut=    50.00 Ry     beta=0.70
     Davidson diagonalization with overlap
     ethr =  2.36E-09,  avg # of iterations =  2.0

     negative rho (up, down):  1.974E+00 0.000E+00

     total cpu time spent up to now is     6138.0 secs

     total energy              =   -7425.29246252 Ry
     Harris-Foulkes estimate   =   -7425.29246330 Ry
     estimated scf accuracy    <       0.00000278 Ry

     iteration # 21     ecut=    50.00 Ry     beta=0.70
     Davidson diagonalization with overlap
     ethr =  3.47E-10,  avg # of iterations =  2.0

     negative rho (up, down):  1.974E+00 0.000E+00

     total cpu time spent up to now is     6362.3 secs

     total energy              =   -7425.29246292 Ry
     Harris-Foulkes estimate   =   -7425.29246328 Ry
     estimated scf accuracy    <       0.00000177 Ry

     iteration # 22     ecut=    50.00 Ry     beta=0.70
     Davidson diagonalization with overlap
     ethr =  2.21E-10,  avg # of iterations =  3.0

     negative rho (up, down):  1.974E+00 0.000E+00

     total cpu time spent up to now is     6587.6 secs

     total energy              =   -7425.29246318 Ry
     Harris-Foulkes estimate   =   -7425.29246327 Ry
     estimated scf accuracy    <       0.00000047 Ry

     iteration # 23     ecut=    50.00 Ry     beta=0.70
     Davidson diagonalization with overlap
     ethr =  5.86E-11,  avg # of iterations =  3.0

     negative rho (up, down):  1.974E+00 0.000E+00

     total cpu time spent up to now is     6823.6 secs

     total energy              =   -7425.29246322 Ry
     Harris-Foulkes estimate   =   -7425.29246327 Ry
     estimated scf accuracy    <       0.00000017 Ry

     iteration # 24     ecut=    50.00 Ry     beta=0.70
     Davidson diagonalization with overlap
     ethr =  2.18E-11,  avg # of iterations =  2.0

     negative rho (up, down):  1.974E+00 0.000E+00

     total cpu time spent up to now is     7047.5 secs

     total energy              =   -7425.29246325 Ry
     Harris-Foulkes estimate   =   -7425.29246328 Ry
     estimated scf accuracy    <       0.00000023 Ry

     iteration # 25     ecut=    50.00 Ry     beta=0.70
     Davidson diagonalization with overlap
     ethr =  2.18E-11,  avg # of iterations =  2.0

     negative rho (up, down):  1.974E+00 0.000E+00

     total cpu time spent up to now is     7258.5 secs

     total energy              =   -7425.29246328 Ry
     Harris-Foulkes estimate   =   -7425.29246329 Ry
     estimated scf accuracy    <       0.00000013 Ry

     iteration # 26     ecut=    50.00 Ry     beta=0.70
     Davidson diagonalization with overlap
     ethr =  1.63E-11,  avg # of iterations =  2.0

     negative rho (up, down):  1.974E+00 0.000E+00

     total cpu time spent up to now is     7468.1 secs

     total energy              =   -7425.29246330 Ry
     Harris-Foulkes estimate   =   -7425.29246330 Ry
     estimated scf accuracy    <       0.00000007 Ry

     iteration # 27     ecut=    50.00 Ry     beta=0.70
     Davidson diagonalization with overlap
     ethr =  8.91E-12,  avg # of iterations =  1.2

     negative rho (up, down):  1.974E+00 0.000E+00

     total cpu time spent up to now is     7672.9 secs

     total energy              =   -7425.29246330 Ry
     Harris-Foulkes estimate   =   -7425.29246331 Ry
     estimated scf accuracy    <       0.00000007 Ry

     iteration # 28     ecut=    50.00 Ry     beta=0.70
     Davidson diagonalization with overlap
     ethr =  8.48E-12,  avg # of iterations =  2.0

     negative rho (up, down):  1.974E+00 0.000E+00

     total cpu time spent up to now is     7904.8 secs

     total energy              =   -7425.29246331 Ry
     Harris-Foulkes estimate   =   -7425.29246331 Ry
     estimated scf accuracy    <       0.00000001 Ry

     iteration # 29     ecut=    50.00 Ry     beta=0.70
     Davidson diagonalization with overlap
     ethr =  1.31E-12,  avg # of iterations =  2.0

     negative rho (up, down):  1.974E+00 0.000E+00

     total cpu time spent up to now is     8121.1 secs

     End of self-consistent calculation

          k = 0.2500 0.2500 0.0833 (167653 PWs)   bands (ev):

   -19.2542  -7.1225  -6.8420  -6.3144  -6.3139  -5.8847  -5.4755  -5.3829
    -5.3821  -5.1867  -5.1864  -5.0691  -5.0679  -4.9902  -4.9671  -4.8942
    -4.8094  -4.8055  -4.7667  -4.7663  -4.6058  -4.5891  -4.5882  -4.5874
    -4.5807  -4.5251  -4.5249  -4.5134  -4.5127  -4.4761  -4.4639  -4.4627
    -4.4214  -4.4211  -4.3879  -4.3866  -4.3353  -4.3339  -4.3238  -4.3227
    -4.3172  -4.3041  -4.3040  -4.2629  -4.2449  -4.2445  -4.2377  -4.2374
    -4.2054  -4.1558  -4.1407  -4.1400  -4.1373  -4.1359  -4.1285  -4.1230
    -4.1228  -4.1223  -4.0584  -4.0566  -4.0082  -4.0070  -3.9951  -3.9694
    -3.9689  -3.9495  -3.9464  -3.9458  -3.9418  -3.9388  -3.8900  -3.8897
    -3.8771  -3.8763  -3.7720  -3.7708  -3.7663  -3.7645  -3.7277  -3.7193
    -3.7044  -3.6749  -3.6744  -3.6461  -3.6452  -3.6249  -3.6237  -3.6110
    -3.6096  -3.5557  -3.5550  -3.5382  -3.5211  -3.5106  -3.5088  -3.5080
    -3.5071  -3.4806  -3.4795  -3.4439  -3.4431  -3.4220  -3.4205  -3.3892
    -3.3873  -3.3695  -3.3444  -3.3415  -3.3103  -3.3046  -3.3039  -3.2675
    -3.2612  -3.2603  -3.2462  -3.2444  -3.2413  -3.2410  -3.2030  -3.1925
    -3.1520  -3.1518  -3.1438  -3.1343  -3.1339  -3.1323  -3.1080  -3.1080
    -3.0871  -3.0866  -3.0854  -3.0591  -3.0589  -3.0515  -3.0487  -3.0482
    -3.0125  -3.0085  -2.9735  -2.9723  -2.9720  -2.9692  -2.9687  -2.8897
    -2.8798  -2.8760  -2.8747  -2.8743  -2.8733  -2.8697  -2.8686  -2.8681
    -2.8677  -2.8585  -2.8507  -2.8341  -2.8311  -2.8306  -2.8297  -2.8156
    -2.8110  -2.7730  -2.7723  -2.7718  -2.7682  -2.7670  -2.7496  -2.7489
    -2.7405  -2.7402  -2.7379  -2.6788  -2.6785  -2.6732  -2.6730  -2.6683
    -2.6677  -2.6399  -2.5808  -2.5799  -2.5792  -2.5771  -2.5659  -2.5638
    -2.5591  -2.5485  -2.5476  -2.5122  -2.5100  -2.5029  -2.5021  -2.5008
    -2.5004  -2.4620  -2.4610  -2.4517  -2.4512  -2.4499  -2.4492  -2.4074
    -2.3918  -2.3865  -2.3331  -2.3322  -2.3146  -2.3129  -2.3073  -2.3068
    -2.2594  -2.2573  -2.2348  -2.2191  -2.2049  -2.2038  -2.2028  -2.1816
    -2.1809  -2.1715  -2.1551  -2.1156  -2.1134  -2.1013  -2.0995  -2.0984
    -2.0890  -2.0879  -2.0749  -2.0724  -2.0718  -2.0682  -2.0643  -2.0629
    -2.0616  -2.0512  -2.0501  -2.0331  -2.0321  -2.0304  -2.0243  -2.0216
    -2.0206  -1.9980  -1.9968  -1.9860  -1.9840  -1.9797  -1.9783  -1.9407
    -1.9075  -1.9063  -1.8712  -1.8545  -1.8538  -1.8449  -1.8420  -1.8205
    -1.8189  -1.8065  -1.8039  -1.8027  -1.8024  -1.8011  -1.7985  -1.7676
    -1.7668  -1.7664  -1.7215  -1.7204  -1.6816  -1.6801  -1.6340  -1.6332
    -1.6210  -1.5985  -1.5939  -1.5908  -1.5757  -1.5733  -1.5572  -1.5544
    -1.5522  -1.5496  -1.5490  -1.5479  -1.5472  -1.5453  -1.5256  -1.5245
    -1.5141  -1.4971  -1.4789  -1.4783  -1.4534  -1.4518  -1.4491  -1.4478
    -1.4466  -1.4421  -1.4228  -1.4198  -1.4081  -1.4044  -1.3927  -1.3824
    -1.3699  -1.3680  -1.3387  -1.3373  -1.3311  -1.3290  -1.2993  -1.2943
    -1.2869  -1.2847  -1.2808  -1.2763  -1.2649  -1.2552  -1.2536  -1.2427
    -1.2363  -1.2342  -1.2234  -1.2219  -1.2211  -1.2170  -1.2074  -1.1968
    -1.1945  -1.1890  -1.1883  -1.1759  -1.1725  -1.1687  -1.1654  -1.1256
    -1.1239  -1.1190  -1.1163  -1.1161  -1.1152  -1.0768  -1.0604  -1.0590
    -1.0587  -1.0581  -1.0540  -1.0521  -1.0493  -1.0365  -1.0341  -0.9980
    -0.9970  -0.9903  -0.9901  -0.9677  -0.9670  -0.9574  -0.9279  -0.9200
    -0.8934  -0.8919  -0.8648  -0.8644  -0.8615  -0.8608  -0.8596  -0.8554
    -0.8517  -0.8503  -0.8463  -0.8452  -0.8139  -0.8132  -0.7955  -0.7938
    -0.7907  -0.7892  -0.7878  -0.7870  -0.7694  -0.4934  -0.4834  -0.4277
    -0.4245  -0.3880  -0.2271  -0.1625  -0.1614  -0.1295   0.1568   0.1579
     0.4862   0.4896   0.5857   0.5865   0.6263   0.6287   0.7702   0.7727
     0.8948   0.8968   0.9857   1.5821   1.6001   1.6012   1.6396   1.6455
     1.6881   1.6962   1.7695   1.7719   1.9769   1.9785   2.2135   2.2905
     2.2956   2.3090   2.6868   2.6946   2.7629   2.7640   2.7701   2.7716
     2.9216   2.9230   2.9739   3.0643   3.0692   3.2966   3.2994   3.4319
     3.4580   3.4610   3.7293   3.7327   3.8431   3.8626   3.8637   3.9242
     3.9529   4.0482   4.0517   4.2855   4.2876   4.3733   4.3797   4.4981
     4.5025   4.5190   4.5293   4.6752   5.0407   5.3325   5.3407   5.4276
     5.4342   5.5056   5.6089   5.6130   5.6567   5.7001   5.7251   5.7294
     5.7458   5.7785   5.7812   5.8253   5.9935   6.0776   6.0918   6.0986
     6.1115   6.1217   6.1251   6.1305   6.1320   6.1348   6.1818   6.2103

          k = 0.2500 0.2500-0.2500 (167588 PWs)   bands (ev):

   -19.2542  -7.1225  -6.8420  -6.3144  -6.3139  -5.8847  -5.4755  -5.3829
    -5.3821  -5.1867  -5.1864  -5.0691  -5.0679  -4.9902  -4.9671  -4.8942
    -4.8094  -4.8055  -4.7667  -4.7663  -4.6058  -4.5891  -4.5882  -4.5874
    -4.5807  -4.5251  -4.5249  -4.5134  -4.5127  -4.4761  -4.4639  -4.4627
    -4.4214  -4.4211  -4.3879  -4.3866  -4.3353  -4.3339  -4.3238  -4.3227
    -4.3172  -4.3041  -4.3040  -4.2629  -4.2449  -4.2445  -4.2377  -4.2374
    -4.2054  -4.1558  -4.1407  -4.1400  -4.1373  -4.1359  -4.1285  -4.1230
    -4.1228  -4.1223  -4.0584  -4.0566  -4.0082  -4.0070  -3.9951  -3.9693
    -3.9689  -3.9495  -3.9464  -3.9458  -3.9418  -3.9389  -3.8900  -3.8897
    -3.8771  -3.8763  -3.7720  -3.7708  -3.7663  -3.7645  -3.7277  -3.7193
    -3.7044  -3.6749  -3.6744  -3.6461  -3.6452  -3.6249  -3.6237  -3.6110
    -3.6096  -3.5557  -3.5550  -3.5382  -3.5211  -3.5106  -3.5087  -3.5080
    -3.5071  -3.4806  -3.4795  -3.4439  -3.4431  -3.4220  -3.4205  -3.3892
    -3.3873  -3.3695  -3.3444  -3.3415  -3.3103  -3.3046  -3.3039  -3.2675
    -3.2612  -3.2603  -3.2462  -3.2444  -3.2413  -3.2409  -3.2030  -3.1925
    -3.1520  -3.1518  -3.1438  -3.1343  -3.1339  -3.1323  -3.1080  -3.1080
    -3.0871  -3.0866  -3.0854  -3.0591  -3.0589  -3.0515  -3.0487  -3.0482
    -3.0125  -3.0085  -2.9735  -2.9723  -2.9720  -2.9692  -2.9687  -2.8897
    -2.8798  -2.8760  -2.8747  -2.8743  -2.8733  -2.8696  -2.8686  -2.8681
    -2.8677  -2.8585  -2.8507  -2.8341  -2.8311  -2.8306  -2.8297  -2.8156
    -2.8109  -2.7730  -2.7723  -2.7718  -2.7682  -2.7670  -2.7496  -2.7489
    -2.7405  -2.7402  -2.7379  -2.6788  -2.6785  -2.6732  -2.6730  -2.6683
    -2.6677  -2.6399  -2.5808  -2.5799  -2.5792  -2.5772  -2.5659  -2.5638
    -2.5591  -2.5485  -2.5476  -2.5122  -2.5100  -2.5029  -2.5021  -2.5008
    -2.5004  -2.4620  -2.4610  -2.4517  -2.4512  -2.4499  -2.4492  -2.4074
    -2.3918  -2.3864  -2.3331  -2.3322  -2.3147  -2.3129  -2.3073  -2.3068
    -2.2594  -2.2573  -2.2348  -2.2191  -2.2049  -2.2038  -2.2028  -2.1816
    -2.1809  -2.1715  -2.1551  -2.1156  -2.1134  -2.1013  -2.0995  -2.0984
    -2.0890  -2.0879  -2.0749  -2.0724  -2.0718  -2.0682  -2.0644  -2.0629
    -2.0616  -2.0512  -2.0501  -2.0331  -2.0321  -2.0304  -2.0243  -2.0216
    -2.0206  -1.9980  -1.9968  -1.9860  -1.9840  -1.9797  -1.9783  -1.9408
    -1.9075  -1.9063  -1.8712  -1.8545  -1.8537  -1.8448  -1.8420  -1.8205
    -1.8189  -1.8065  -1.8039  -1.8027  -1.8024  -1.8011  -1.7985  -1.7676
    -1.7668  -1.7664  -1.7215  -1.7204  -1.6816  -1.6801  -1.6340  -1.6332
    -1.6211  -1.5985  -1.5939  -1.5908  -1.5757  -1.5733  -1.5572  -1.5544
    -1.5522  -1.5496  -1.5490  -1.5479  -1.5472  -1.5453  -1.5256  -1.5245
    -1.5141  -1.4971  -1.4789  -1.4783  -1.4534  -1.4518  -1.4491  -1.4478
    -1.4466  -1.4421  -1.4228  -1.4198  -1.4081  -1.4044  -1.3927  -1.3824
    -1.3699  -1.3680  -1.3387  -1.3374  -1.3311  -1.3290  -1.2993  -1.2943
    -1.2869  -1.2847  -1.2808  -1.2763  -1.2649  -1.2552  -1.2536  -1.2427
    -1.2363  -1.2342  -1.2234  -1.2219  -1.2211  -1.2170  -1.2074  -1.1968
    -1.1945  -1.1890  -1.1883  -1.1759  -1.1725  -1.1687  -1.1654  -1.1256
    -1.1239  -1.1190  -1.1163  -1.1161  -1.1152  -1.0768  -1.0604  -1.0590
    -1.0587  -1.0581  -1.0540  -1.0521  -1.0493  -1.0365  -1.0341  -0.9980
    -0.9970  -0.9903  -0.9901  -0.9677  -0.9670  -0.9574  -0.9279  -0.9200
    -0.8934  -0.8919  -0.8648  -0.8644  -0.8615  -0.8609  -0.8596  -0.8554
    -0.8517  -0.8503  -0.8463  -0.8452  -0.8139  -0.8132  -0.7955  -0.7938
    -0.7907  -0.7892  -0.7878  -0.7870  -0.7694  -0.4934  -0.4834  -0.4277
    -0.4245  -0.3880  -0.2270  -0.1625  -0.1614  -0.1295   0.1568   0.1579
     0.4862   0.4896   0.5858   0.5865   0.6263   0.6287   0.7702   0.7727
     0.8948   0.8968   0.9857   1.5821   1.6001   1.6012   1.6396   1.6455
     1.6882   1.6962   1.7695   1.7719   1.9769   1.9785   2.2135   2.2905
     2.2956   2.3090   2.6868   2.6946   2.7629   2.7640   2.7701   2.7716
     2.9216   2.9230   2.9739   3.0643   3.0692   3.2966   3.2994   3.4319
     3.4580   3.4610   3.7293   3.7327   3.8431   3.8626   3.8637   3.9243
     3.9530   4.0482   4.0517   4.2855   4.2876   4.3733   4.3797   4.4981
     4.5025   4.5190   4.5293   4.6753   5.0339   5.3295   5.3392   5.4272
     5.4336   5.5036   5.6094   5.6130   5.6708   5.7160   5.7266   5.7319
     5.7527   5.7789   5.7811   5.8252   6.0355   6.0636   6.0891   6.1013
     6.1143   6.1185   6.1242   6.1288   6.1319   6.1336   6.1933   6.2174

          k =-0.2500-0.2500 0.0833 (167653 PWs)   bands (ev):

   -19.2542  -7.1225  -6.8420  -6.3144  -6.3139  -5.8847  -5.4755  -5.3829
    -5.3821  -5.1867  -5.1864  -5.0691  -5.0679  -4.9902  -4.9671  -4.8942
    -4.8094  -4.8055  -4.7667  -4.7663  -4.6058  -4.5891  -4.5882  -4.5874
    -4.5807  -4.5251  -4.5249  -4.5134  -4.5127  -4.4761  -4.4639  -4.4627
    -4.4214  -4.4211  -4.3879  -4.3866  -4.3353  -4.3339  -4.3238  -4.3227
    -4.3172  -4.3041  -4.3040  -4.2629  -4.2449  -4.2445  -4.2377  -4.2374
    -4.2054  -4.1558  -4.1407  -4.1400  -4.1373  -4.1359  -4.1285  -4.1230
    -4.1228  -4.1223  -4.0584  -4.0566  -4.0082  -4.0070  -3.9951  -3.9694
    -3.9689  -3.9495  -3.9464  -3.9458  -3.9418  -3.9388  -3.8900  -3.8897
    -3.8771  -3.8763  -3.7720  -3.7708  -3.7663  -3.7645  -3.7277  -3.7193
    -3.7044  -3.6749  -3.6744  -3.6461  -3.6452  -3.6249  -3.6237  -3.6110
    -3.6096  -3.5557  -3.5550  -3.5382  -3.5211  -3.5106  -3.5088  -3.5080
    -3.5071  -3.4806  -3.4795  -3.4439  -3.4431  -3.4220  -3.4205  -3.3892
    -3.3873  -3.3695  -3.3444  -3.3415  -3.3103  -3.3046  -3.3039  -3.2675
    -3.2612  -3.2603  -3.2462  -3.2444  -3.2413  -3.2410  -3.2030  -3.1925
    -3.1520  -3.1518  -3.1438  -3.1343  -3.1339  -3.1323  -3.1080  -3.1080
    -3.0871  -3.0866  -3.0854  -3.0591  -3.0589  -3.0515  -3.0487  -3.0482
    -3.0125  -3.0085  -2.9735  -2.9723  -2.9720  -2.9692  -2.9687  -2.8897
    -2.8798  -2.8760  -2.8747  -2.8743  -2.8733  -2.8697  -2.8686  -2.8681
    -2.8677  -2.8585  -2.8507  -2.8341  -2.8311  -2.8306  -2.8297  -2.8156
    -2.8110  -2.7730  -2.7723  -2.7718  -2.7682  -2.7670  -2.7496  -2.7489
    -2.7405  -2.7402  -2.7379  -2.6788  -2.6785  -2.6732  -2.6730  -2.6683
    -2.6677  -2.6399  -2.5808  -2.5799  -2.5792  -2.5771  -2.5659  -2.5638
    -2.5591  -2.5485  -2.5476  -2.5122  -2.5100  -2.5029  -2.5021  -2.5008
    -2.5004  -2.4620  -2.4610  -2.4517  -2.4512  -2.4499  -2.4492  -2.4074
    -2.3918  -2.3865  -2.3331  -2.3322  -2.3146  -2.3129  -2.3073  -2.3068
    -2.2594  -2.2573  -2.2348  -2.2191  -2.2049  -2.2038  -2.2028  -2.1816
    -2.1809  -2.1715  -2.1551  -2.1156  -2.1134  -2.1013  -2.0995  -2.0984
    -2.0890  -2.0879  -2.0749  -2.0724  -2.0718  -2.0682  -2.0643  -2.0629
    -2.0616  -2.0512  -2.0501  -2.0331  -2.0321  -2.0304  -2.0243  -2.0216
    -2.0206  -1.9980  -1.9968  -1.9860  -1.9840  -1.9797  -1.9783  -1.9407
    -1.9075  -1.9063  -1.8712  -1.8545  -1.8538  -1.8449  -1.8420  -1.8205
    -1.8189  -1.8065  -1.8039  -1.8027  -1.8024  -1.8011  -1.7985  -1.7676
    -1.7668  -1.7664  -1.7215  -1.7204  -1.6816  -1.6801  -1.6340  -1.6332
    -1.6210  -1.5985  -1.5939  -1.5908  -1.5757  -1.5733  -1.5572  -1.5544
    -1.5522  -1.5496  -1.5490  -1.5479  -1.5472  -1.5453  -1.5256  -1.5245
    -1.5141  -1.4971  -1.4789  -1.4783  -1.4534  -1.4518  -1.4491  -1.4478
    -1.4466  -1.4421  -1.4228  -1.4198  -1.4081  -1.4044  -1.3927  -1.3824
    -1.3699  -1.3680  -1.3387  -1.3373  -1.3311  -1.3290  -1.2993  -1.2943
    -1.2869  -1.2847  -1.2808  -1.2763  -1.2649  -1.2552  -1.2536  -1.2427
    -1.2363  -1.2342  -1.2234  -1.2219  -1.2211  -1.2170  -1.2074  -1.1968
    -1.1945  -1.1890  -1.1883  -1.1759  -1.1725  -1.1687  -1.1654  -1.1256
    -1.1239  -1.1190  -1.1163  -1.1161  -1.1152  -1.0768  -1.0604  -1.0590
    -1.0587  -1.0581  -1.0540  -1.0521  -1.0493  -1.0365  -1.0341  -0.9980
    -0.9970  -0.9903  -0.9901  -0.9677  -0.9670  -0.9574  -0.9279  -0.9200
    -0.8934  -0.8919  -0.8648  -0.8644  -0.8615  -0.8608  -0.8596  -0.8554
    -0.8517  -0.8503  -0.8463  -0.8452  -0.8139  -0.8132  -0.7955  -0.7938
    -0.7907  -0.7892  -0.7878  -0.7870  -0.7694  -0.4934  -0.4834  -0.4277
    -0.4245  -0.3880  -0.2271  -0.1625  -0.1614  -0.1295   0.1568   0.1579
     0.4862   0.4896   0.5857   0.5865   0.6263   0.6287   0.7702   0.7727
     0.8948   0.8968   0.9857   1.5821   1.6001   1.6012   1.6396   1.6455
     1.6881   1.6962   1.7695   1.7719   1.9769   1.9785   2.2135   2.2905
     2.2956   2.3090   2.6868   2.6946   2.7629   2.7640   2.7701   2.7716
     2.9216   2.9230   2.9739   3.0643   3.0692   3.2966   3.2994   3.4319
     3.4580   3.4610   3.7293   3.7327   3.8431   3.8626   3.8637   3.9242
     3.9529   4.0482   4.0517   4.2855   4.2876   4.3733   4.3797   4.4981
     4.5025   4.5190   4.5293   4.6752   5.0404   5.3326   5.3417   5.4275
     5.4342   5.5013   5.6086   5.6130   5.6603   5.7035   5.7248   5.7294
     5.7464   5.7787   5.7812   5.8255   5.9946   6.0760   6.0905   6.0993
     6.1125   6.1216   6.1253   6.1297   6.1319   6.1341   6.1713   6.2069

          k =-0.2500 0.2500-0.0833 (167653 PWs)   bands (ev):

   -19.2542  -7.1225  -6.8420  -6.3145  -6.3138  -5.8847  -5.4755  -5.3829
    -5.3821  -5.1867  -5.1864  -5.0692  -5.0678  -4.9902  -4.9671  -4.8942
    -4.8094  -4.8055  -4.7667  -4.7663  -4.6058  -4.5891  -4.5882  -4.5874
    -4.5807  -4.5251  -4.5249  -4.5134  -4.5127  -4.4761  -4.4639  -4.4628
    -4.4214  -4.4211  -4.3879  -4.3866  -4.3353  -4.3340  -4.3238  -4.3227
    -4.3172  -4.3041  -4.3040  -4.2630  -4.2448  -4.2445  -4.2377  -4.2374
    -4.2054  -4.1558  -4.1407  -4.1400  -4.1371  -4.1359  -4.1285  -4.1230
    -4.1229  -4.1223  -4.0584  -4.0566  -4.0083  -4.0069  -3.9951  -3.9693
    -3.9689  -3.9495  -3.9463  -3.9458  -3.9419  -3.9388  -3.8900  -3.8897
    -3.8771  -3.8763  -3.7720  -3.7708  -3.7663  -3.7645  -3.7277  -3.7193
    -3.7044  -3.6749  -3.6743  -3.6461  -3.6453  -3.6249  -3.6236  -3.6110
    -3.6096  -3.5557  -3.5550  -3.5384  -3.5211  -3.5107  -3.5087  -3.5079
    -3.5071  -3.4805  -3.4794  -3.4440  -3.4431  -3.4220  -3.4203  -3.3892
    -3.3872  -3.3695  -3.3448  -3.3415  -3.3096  -3.3044  -3.3039  -3.2676
    -3.2611  -3.2603  -3.2463  -3.2447  -3.2413  -3.2410  -3.2029  -3.1925
    -3.1520  -3.1518  -3.1438  -3.1346  -3.1335  -3.1324  -3.1080  -3.1079
    -3.0872  -3.0865  -3.0854  -3.0591  -3.0589  -3.0515  -3.0487  -3.0482
    -3.0125  -3.0085  -2.9736  -2.9723  -2.9720  -2.9693  -2.9687  -2.8897
    -2.8798  -2.8759  -2.8748  -2.8743  -2.8733  -2.8696  -2.8687  -2.8681
    -2.8677  -2.8585  -2.8507  -2.8341  -2.8311  -2.8307  -2.8297  -2.8156
    -2.8109  -2.7731  -2.7721  -2.7719  -2.7682  -2.7670  -2.7496  -2.7489
    -2.7406  -2.7402  -2.7379  -2.6789  -2.6784  -2.6731  -2.6730  -2.6683
    -2.6676  -2.6399  -2.5809  -2.5798  -2.5793  -2.5772  -2.5659  -2.5638
    -2.5591  -2.5485  -2.5476  -2.5122  -2.5100  -2.5030  -2.5020  -2.5009
    -2.5003  -2.4620  -2.4610  -2.4518  -2.4512  -2.4499  -2.4492  -2.4074
    -2.3918  -2.3865  -2.3331  -2.3322  -2.3146  -2.3129  -2.3073  -2.3068
    -2.2594  -2.2573  -2.2348  -2.2191  -2.2049  -2.2038  -2.2028  -2.1816
    -2.1809  -2.1715  -2.1551  -2.1155  -2.1134  -2.1012  -2.0996  -2.0984
    -2.0890  -2.0879  -2.0749  -2.0725  -2.0717  -2.0682  -2.0644  -2.0629
    -2.0616  -2.0512  -2.0501  -2.0330  -2.0321  -2.0304  -2.0243  -2.0216
    -2.0206  -1.9980  -1.9968  -1.9860  -1.9840  -1.9796  -1.9783  -1.9407
    -1.9075  -1.9063  -1.8712  -1.8545  -1.8538  -1.8449  -1.8420  -1.8206
    -1.8189  -1.8066  -1.8038  -1.8027  -1.8024  -1.8011  -1.7985  -1.7676
    -1.7668  -1.7664  -1.7215  -1.7204  -1.6816  -1.6801  -1.6340  -1.6332
    -1.6210  -1.5985  -1.5939  -1.5908  -1.5758  -1.5733  -1.5574  -1.5544
    -1.5520  -1.5497  -1.5490  -1.5479  -1.5471  -1.5453  -1.5255  -1.5246
    -1.5140  -1.4971  -1.4790  -1.4782  -1.4537  -1.4517  -1.4492  -1.4479
    -1.4464  -1.4420  -1.4220  -1.4204  -1.4076  -1.4047  -1.3927  -1.3824
    -1.3699  -1.3679  -1.3387  -1.3375  -1.3309  -1.3293  -1.3004  -1.2936
    -1.2865  -1.2846  -1.2800  -1.2767  -1.2647  -1.2550  -1.2538  -1.2428
    -1.2362  -1.2345  -1.2234  -1.2220  -1.2214  -1.2172  -1.2075  -1.1967
    -1.1944  -1.1890  -1.1883  -1.1760  -1.1726  -1.1687  -1.1654  -1.1257
    -1.1237  -1.1189  -1.1163  -1.1161  -1.1152  -1.0768  -1.0606  -1.0590
    -1.0588  -1.0580  -1.0545  -1.0514  -1.0493  -1.0365  -1.0341  -0.9981
    -0.9970  -0.9903  -0.9901  -0.9677  -0.9670  -0.9574  -0.9279  -0.9200
    -0.8935  -0.8918  -0.8648  -0.8643  -0.8615  -0.8608  -0.8596  -0.8554
    -0.8518  -0.8503  -0.8463  -0.8451  -0.8139  -0.8132  -0.7961  -0.7933
    -0.7907  -0.7891  -0.7879  -0.7868  -0.7694  -0.4934  -0.4834  -0.4284
    -0.4237  -0.3880  -0.2270  -0.1625  -0.1614  -0.1296   0.1567   0.1581
     0.4858   0.4900   0.5858   0.5864   0.6263   0.6289   0.7702   0.7727
     0.8948   0.8968   0.9857   1.5820   1.6001   1.6012   1.6391   1.6455
     1.6875   1.6972   1.7697   1.7718   1.9769   1.9785   2.2133   2.2900
     2.2959   2.3091   2.6859   2.6953   2.7628   2.7643   2.7701   2.7717
     2.9218   2.9228   2.9737   3.0652   3.0691   3.2965   3.3003   3.4318
     3.4580   3.4608   3.7297   3.7325   3.8420   3.8627   3.8637   3.9235
     3.9541   4.0482   4.0518   4.2856   4.2876   4.3726   4.3801   4.4970
     4.5032   4.5177   4.5299   4.6751   5.0406   5.3311   5.3429   5.4281
     5.4345   5.5020   5.6092   5.6128   5.6600   5.7038   5.7244   5.7296
     5.7452   5.7794   5.7810   5.8259   5.9938   6.0791   6.0896   6.0985
     6.1129   6.1210   6.1256   6.1284   6.1319   6.1332   6.1731   6.2066

          k = 0.2500-0.2500-0.0833 (167653 PWs)   bands (ev):

   -19.2542  -7.1225  -6.8420  -6.3145  -6.3138  -5.8847  -5.4755  -5.3829
    -5.3821  -5.1867  -5.1864  -5.0692  -5.0678  -4.9902  -4.9671  -4.8942
    -4.8094  -4.8055  -4.7667  -4.7663  -4.6058  -4.5891  -4.5882  -4.5874
    -4.5807  -4.5251  -4.5249  -4.5134  -4.5127  -4.4761  -4.4639  -4.4628
    -4.4214  -4.4211  -4.3879  -4.3866  -4.3353  -4.3340  -4.3238  -4.3227
    -4.3172  -4.3041  -4.3040  -4.2630  -4.2448  -4.2445  -4.2377  -4.2374
    -4.2054  -4.1558  -4.1407  -4.1400  -4.1371  -4.1359  -4.1285  -4.1230
    -4.1229  -4.1223  -4.0584  -4.0566  -4.0083  -4.0069  -3.9951  -3.9693
    -3.9689  -3.9495  -3.9463  -3.9458  -3.9419  -3.9388  -3.8900  -3.8897
    -3.8771  -3.8763  -3.7720  -3.7708  -3.7663  -3.7645  -3.7277  -3.7193
    -3.7044  -3.6749  -3.6743  -3.6461  -3.6453  -3.6249  -3.6236  -3.6110
    -3.6096  -3.5557  -3.5550  -3.5384  -3.5211  -3.5107  -3.5087  -3.5079
    -3.5071  -3.4805  -3.4794  -3.4440  -3.4431  -3.4220  -3.4203  -3.3892
    -3.3872  -3.3695  -3.3448  -3.3415  -3.3096  -3.3044  -3.3039  -3.2676
    -3.2611  -3.2603  -3.2463  -3.2447  -3.2413  -3.2410  -3.2029  -3.1925
    -3.1520  -3.1518  -3.1438  -3.1346  -3.1335  -3.1324  -3.1080  -3.1079
    -3.0872  -3.0865  -3.0854  -3.0591  -3.0589  -3.0515  -3.0487  -3.0482
    -3.0125  -3.0085  -2.9736  -2.9723  -2.9720  -2.9693  -2.9687  -2.8897
    -2.8798  -2.8759  -2.8748  -2.8743  -2.8733  -2.8696  -2.8687  -2.8681
    -2.8677  -2.8585  -2.8507  -2.8341  -2.8311  -2.8307  -2.8297  -2.8156
    -2.8109  -2.7731  -2.7721  -2.7719  -2.7682  -2.7670  -2.7496  -2.7489
    -2.7406  -2.7402  -2.7379  -2.6789  -2.6784  -2.6731  -2.6730  -2.6683
    -2.6676  -2.6399  -2.5809  -2.5798  -2.5793  -2.5772  -2.5659  -2.5638
    -2.5591  -2.5485  -2.5476  -2.5122  -2.5100  -2.5030  -2.5020  -2.5009
    -2.5003  -2.4620  -2.4610  -2.4518  -2.4512  -2.4499  -2.4492  -2.4074
    -2.3918  -2.3865  -2.3331  -2.3322  -2.3146  -2.3129  -2.3073  -2.3068
    -2.2594  -2.2573  -2.2348  -2.2191  -2.2049  -2.2038  -2.2028  -2.1816
    -2.1809  -2.1715  -2.1551  -2.1155  -2.1134  -2.1012  -2.0996  -2.0984
    -2.0890  -2.0879  -2.0749  -2.0725  -2.0717  -2.0682  -2.0644  -2.0629
    -2.0616  -2.0512  -2.0501  -2.0330  -2.0321  -2.0304  -2.0243  -2.0216
    -2.0206  -1.9980  -1.9968  -1.9860  -1.9840  -1.9796  -1.9783  -1.9407
    -1.9075  -1.9063  -1.8712  -1.8545  -1.8538  -1.8449  -1.8420  -1.8206
    -1.8189  -1.8066  -1.8038  -1.8027  -1.8024  -1.8011  -1.7985  -1.7676
    -1.7668  -1.7664  -1.7215  -1.7204  -1.6816  -1.6801  -1.6340  -1.6332
    -1.6210  -1.5985  -1.5939  -1.5908  -1.5758  -1.5733  -1.5574  -1.5544
    -1.5520  -1.5497  -1.5490  -1.5479  -1.5471  -1.5453  -1.5255  -1.5246
    -1.5140  -1.4971  -1.4790  -1.4782  -1.4537  -1.4517  -1.4492  -1.4479
    -1.4464  -1.4420  -1.4220  -1.4204  -1.4076  -1.4047  -1.3927  -1.3824
    -1.3699  -1.3679  -1.3387  -1.3375  -1.3309  -1.3293  -1.3004  -1.2936
    -1.2865  -1.2846  -1.2800  -1.2767  -1.2647  -1.2550  -1.2538  -1.2428
    -1.2362  -1.2345  -1.2234  -1.2220  -1.2214  -1.2172  -1.2075  -1.1967
    -1.1944  -1.1890  -1.1883  -1.1760  -1.1726  -1.1687  -1.1654  -1.1257
    -1.1237  -1.1189  -1.1163  -1.1161  -1.1152  -1.0768  -1.0606  -1.0590
    -1.0588  -1.0580  -1.0545  -1.0514  -1.0493  -1.0365  -1.0341  -0.9981
    -0.9970  -0.9903  -0.9901  -0.9677  -0.9670  -0.9574  -0.9279  -0.9200
    -0.8935  -0.8918  -0.8648  -0.8643  -0.8615  -0.8608  -0.8596  -0.8554
    -0.8518  -0.8503  -0.8463  -0.8451  -0.8139  -0.8132  -0.7961  -0.7933
    -0.7907  -0.7891  -0.7879  -0.7868  -0.7694  -0.4934  -0.4834  -0.4284
    -0.4237  -0.3880  -0.2270  -0.1625  -0.1614  -0.1296   0.1567   0.1581
     0.4858   0.4900   0.5858   0.5864   0.6263   0.6289   0.7702   0.7727
     0.8948   0.8968   0.9857   1.5820   1.6001   1.6012   1.6391   1.6455
     1.6875   1.6972   1.7697   1.7718   1.9769   1.9785   2.2133   2.2900
     2.2959   2.3091   2.6859   2.6953   2.7628   2.7643   2.7701   2.7717
     2.9218   2.9228   2.9737   3.0652   3.0691   3.2965   3.3003   3.4318
     3.4580   3.4608   3.7297   3.7325   3.8420   3.8627   3.8637   3.9235
     3.9541   4.0482   4.0518   4.2856   4.2876   4.3726   4.3801   4.4970
     4.5032   4.5177   4.5299   4.6751   5.0408   5.3309   5.3420   5.4281
     5.4345   5.5055   5.6095   5.6128   5.6575   5.7008   5.7245   5.7296
     5.7443   5.7792   5.7810   5.8258   5.9932   6.0800   6.0903   6.0977
     6.1121   6.1211   6.1256   6.1296   6.1320   6.1337   6.1820   6.2112

          k =-0.2500 0.2500 0.2500 (167588 PWs)   bands (ev):

   -19.2542  -7.1225  -6.8420  -6.3145  -6.3138  -5.8847  -5.4755  -5.3829
    -5.3821  -5.1867  -5.1864  -5.0692  -5.0678  -4.9902  -4.9671  -4.8942
    -4.8094  -4.8055  -4.7667  -4.7663  -4.6058  -4.5891  -4.5882  -4.5874
    -4.5807  -4.5251  -4.5249  -4.5134  -4.5127  -4.4761  -4.4639  -4.4628
    -4.4214  -4.4211  -4.3879  -4.3866  -4.3353  -4.3340  -4.3238  -4.3227
    -4.3172  -4.3041  -4.3040  -4.2630  -4.2449  -4.2445  -4.2377  -4.2374
    -4.2054  -4.1558  -4.1407  -4.1400  -4.1371  -4.1359  -4.1285  -4.1230
    -4.1229  -4.1223  -4.0584  -4.0566  -4.0083  -4.0069  -3.9951  -3.9693
    -3.9688  -3.9494  -3.9463  -3.9458  -3.9419  -3.9388  -3.8900  -3.8897
    -3.8771  -3.8763  -3.7720  -3.7708  -3.7663  -3.7645  -3.7277  -3.7193
    -3.7044  -3.6749  -3.6743  -3.6461  -3.6453  -3.6249  -3.6236  -3.6110
    -3.6096  -3.5557  -3.5550  -3.5384  -3.5211  -3.5107  -3.5087  -3.5079
    -3.5071  -3.4805  -3.4794  -3.4440  -3.4431  -3.4220  -3.4203  -3.3892
    -3.3872  -3.3695  -3.3448  -3.3415  -3.3096  -3.3044  -3.3039  -3.2676
    -3.2611  -3.2603  -3.2463  -3.2447  -3.2413  -3.2410  -3.2030  -3.1925
    -3.1520  -3.1518  -3.1438  -3.1346  -3.1335  -3.1324  -3.1080  -3.1079
    -3.0872  -3.0865  -3.0854  -3.0591  -3.0589  -3.0515  -3.0487  -3.0482
    -3.0125  -3.0085  -2.9736  -2.9723  -2.9720  -2.9692  -2.9687  -2.8897
    -2.8798  -2.8759  -2.8748  -2.8743  -2.8733  -2.8695  -2.8687  -2.8681
    -2.8677  -2.8585  -2.8507  -2.8341  -2.8311  -2.8307  -2.8297  -2.8156
    -2.8109  -2.7731  -2.7721  -2.7719  -2.7682  -2.7670  -2.7496  -2.7489
    -2.7406  -2.7402  -2.7379  -2.6789  -2.6784  -2.6731  -2.6730  -2.6683
    -2.6676  -2.6399  -2.5809  -2.5798  -2.5793  -2.5772  -2.5659  -2.5638
    -2.5591  -2.5485  -2.5475  -2.5122  -2.5100  -2.5030  -2.5020  -2.5009
    -2.5003  -2.4621  -2.4610  -2.4518  -2.4512  -2.4499  -2.4492  -2.4074
    -2.3918  -2.3865  -2.3331  -2.3322  -2.3146  -2.3129  -2.3073  -2.3068
    -2.2594  -2.2573  -2.2348  -2.2191  -2.2049  -2.2038  -2.2028  -2.1816
    -2.1809  -2.1715  -2.1551  -2.1155  -2.1134  -2.1012  -2.0996  -2.0984
    -2.0890  -2.0879  -2.0749  -2.0725  -2.0717  -2.0682  -2.0644  -2.0629
    -2.0616  -2.0512  -2.0501  -2.0330  -2.0321  -2.0304  -2.0243  -2.0216
    -2.0206  -1.9980  -1.9968  -1.9860  -1.9840  -1.9796  -1.9783  -1.9408
    -1.9075  -1.9063  -1.8712  -1.8545  -1.8538  -1.8449  -1.8420  -1.8206
    -1.8189  -1.8066  -1.8038  -1.8027  -1.8024  -1.8011  -1.7985  -1.7676
    -1.7668  -1.7664  -1.7215  -1.7204  -1.6816  -1.6801  -1.6340  -1.6332
    -1.6210  -1.5985  -1.5939  -1.5908  -1.5758  -1.5733  -1.5574  -1.5544
    -1.5520  -1.5497  -1.5490  -1.5479  -1.5471  -1.5453  -1.5255  -1.5246
    -1.5141  -1.4971  -1.4790  -1.4782  -1.4537  -1.4517  -1.4492  -1.4479
    -1.4464  -1.4420  -1.4220  -1.4204  -1.4076  -1.4047  -1.3927  -1.3824
    -1.3699  -1.3679  -1.3387  -1.3375  -1.3309  -1.3293  -1.3004  -1.2935
    -1.2865  -1.2846  -1.2800  -1.2767  -1.2647  -1.2550  -1.2538  -1.2428
    -1.2362  -1.2345  -1.2234  -1.2220  -1.2214  -1.2172  -1.2075  -1.1968
    -1.1945  -1.1890  -1.1883  -1.1759  -1.1726  -1.1687  -1.1654  -1.1257
    -1.1237  -1.1190  -1.1163  -1.1161  -1.1152  -1.0768  -1.0606  -1.0590
    -1.0588  -1.0580  -1.0545  -1.0514  -1.0493  -1.0365  -1.0341  -0.9980
    -0.9970  -0.9903  -0.9901  -0.9677  -0.9670  -0.9574  -0.9279  -0.9200
    -0.8935  -0.8918  -0.8648  -0.8643  -0.8615  -0.8608  -0.8596  -0.8554
    -0.8518  -0.8503  -0.8463  -0.8451  -0.8139  -0.8132  -0.7961  -0.7933
    -0.7907  -0.7891  -0.7879  -0.7868  -0.7694  -0.4934  -0.4834  -0.4284
    -0.4237  -0.3880  -0.2269  -0.1625  -0.1614  -0.1296   0.1567   0.1581
     0.4858   0.4900   0.5858   0.5865   0.6263   0.6289   0.7702   0.7727
     0.8948   0.8968   0.9857   1.5820   1.6001   1.6012   1.6391   1.6455
     1.6875   1.6972   1.7697   1.7718   1.9769   1.9785   2.2133   2.2900
     2.2959   2.3091   2.6859   2.6953   2.7628   2.7643   2.7701   2.7717
     2.9218   2.9228   2.9738   3.0652   3.0691   3.2965   3.3003   3.4318
     3.4580   3.4608   3.7297   3.7325   3.8420   3.8627   3.8637   3.9236
     3.9542   4.0482   4.0518   4.2856   4.2875   4.3725   4.3801   4.4970
     4.5032   4.5177   4.5299   4.6752   5.0340   5.3278   5.3406   5.4278
     5.4339   5.5040   5.6099   5.6129   5.6709   5.7150   5.7257   5.7316
     5.7539   5.7795   5.7810   5.8257   6.0350   6.0619   6.0909   6.1018
     6.1135   6.1198   6.1241   6.1286   6.1318   6.1337   6.1921   6.2195

     the Fermi energy is     0.8456 ev

!    total energy              =   -7425.29246332 Ry
     Harris-Foulkes estimate   =   -7425.29246331 Ry
     estimated scf accuracy    <          3.3E-09 Ry

     The total energy is the sum of the following terms:

     one-electron contribution =  -48648.82870093 Ry
     hartree contribution      =   24874.72090313 Ry
     xc contribution           =   -3604.21445185 Ry
     ewald contribution        =   19953.03258079 Ry
     smearing contrib. (-TS)   =      -0.00279446 Ry

     convergence has been achieved in  29 iterations

     Writing output data file 5632070.save

     init_run     :    102.12s CPU    110.62s WALL (       1 calls)
     electrons    :   7208.78s CPU   8009.18s WALL (       1 calls)

     Called by init_run:
     wfcinit      :     78.27s CPU     85.83s WALL (       1 calls)
     potinit      :      5.88s CPU      6.31s WALL (       1 calls)

     Called by electrons:
     c_bands      :   5730.71s CPU   6443.70s WALL (      30 calls)
     sum_band     :    909.52s CPU    979.17s WALL (      30 calls)
     v_of_rho     :    111.55s CPU    123.26s WALL (      30 calls)
     newd         :    463.06s CPU    468.46s WALL (      30 calls)
     mix_rho      :      3.72s CPU      4.16s WALL (      30 calls)
     vdW_energy   :     10.68s CPU     11.89s WALL (      30 calls)
     vdW_ffts     :     52.99s CPU     58.58s WALL (      60 calls)
     vdW_v        :     13.96s CPU     14.76s WALL (      30 calls)

     Called by c_bands:
     init_us_2    :     15.48s CPU     15.84s WALL (     366 calls)
     cegterg      :   5671.38s CPU   6382.72s WALL (     180 calls)

     Called by *egterg:
     h_psi        :   2431.38s CPU   2770.45s WALL (     899 calls)
     s_psi        :    383.50s CPU    411.51s WALL (     899 calls)
     g_psi        :      4.80s CPU      4.75s WALL (     713 calls)
     cdiaghg      :   1569.50s CPU   1574.06s WALL (     887 calls)

     Called by h_psi:
     add_vuspsi   :    386.37s CPU    410.44s WALL (     899 calls)

     General routines
     calbec       :    584.60s CPU    586.83s WALL (    1079 calls)
     fft          :    187.94s CPU    198.31s WALL (    1980 calls)
     ffts         :      1.63s CPU      1.93s WALL (      60 calls)
     fftw         :   1773.62s CPU   2112.80s WALL (  480622 calls)
     interpolate  :      4.34s CPU      5.10s WALL (      60 calls)
     davcio       :      0.00s CPU      0.17s WALL (       6 calls)

     Parallel routines
     fft_scatter  :   1372.49s CPU   1631.49s WALL (  482662 calls)

     PWSCF        :     2h 1m CPU        2h15m WALL


   This run was terminated on:   9:21:40  26Jun2015            

=------------------------------------------------------------------------------=
   JOB DONE.
=------------------------------------------------------------------------------=
