Setting SGE environment for SCC

     Program PWSCF v.5.1.2 starts on 29Jun2015 at 17: 6:34 

     This program is part of the open-source Quantum ESPRESSO suite
     for quantum simulation of materials; please cite
         "P. Giannozzi et al., J. Phys.:Condens. Matter 21 395502 (2009);
          URL http://www.quantum-espresso.org", 
     in publications or presentations arising from this work. More details at
     http://www.quantum-espresso.org/quote

     Parallel version (MPI), running on    32 processors
     R & G space division:  proc/nbgrp/npool/nimage =      32
     Reading input from top.H2.Au62.d.1.9.phi.0.psi.0.in
Warning: card &IONS ignored
Warning: card / ignored
Warning: card &CELL ignored
Warning: card / ignored

     Current dimensions of program PWSCF are:
     Max number of different atomic species (ntypx) = 10
     Max number of k-points (npk) =  40000
     Max angular momentum in pseudopotentials (lmaxx) =  3

     IMPORTANT: XC functional enforced from input :
     Exchange-correlation      = VDW-DF ( 1  4  4  0 1 0)
     Any further DFT definition will be discarded
     Please, verify this is what you really want


     Subspace diagonalization in iterative solution of the eigenvalue problem:
     a serial algorithm will be used


     Parallelization info
     --------------------
     sticks:   dense  smooth     PW     G-vecs:    dense   smooth      PW
     Min         578     289     74               118518    41891    5486
     Max         579     290     75               118533    41932    5497
     Sum       18505    9265   2385              3792731  1341081  175711


     Title: 
     top.H2.Au62.d.1.9.phi.0.psi.0                                              


     bravais-lattice index     =            8
     lattice parameter (alat)  =      24.1233  a.u.
     unit-cell volume          =   28076.2361 (a.u.)^3
     number of atoms/cell      =           75
     number of atomic types    =            3
     number of electrons       =       800.00
     number of Kohn-Sham states=          480
     kinetic-energy cutoff     =      50.0000  Ry
     charge density cutoff     =     400.0000  Ry
     convergence threshold     =      1.0E-08
     mixing beta               =       0.7000
     number of iterations used =            8  plain     mixing
     Exchange-correlation      = VDW-DF ( 1  4  4  0 1 0)

     celldm(1)=  24.123277  celldm(2)=   1.000000  celldm(3)=   2.000000
     celldm(4)=   0.000000  celldm(5)=   0.000000  celldm(6)=   0.000000

     crystal axes: (cart. coord. in units of alat)
               a(1) = (   1.000000   0.000000   0.000000 )  
               a(2) = (   0.000000   1.000000   0.000000 )  
               a(3) = (   0.000000   0.000000   2.000000 )  

     reciprocal axes: (cart. coord. in units 2 pi/alat)
               b(1) = (  1.000000  0.000000  0.000000 )  
               b(2) = (  0.000000  1.000000  0.000000 )  
               b(3) = (  0.000000  0.000000  0.500000 )  


     PseudoPot. # 1 for Au read from file:
     /home/scc/andrejb/qe/pseudo/Au.pbe-nd-van.UPF
     MD5 check sum: 458681b50f36d87ef23c61b04bba420a
     Pseudo is Ultrasoft + core correction, Zval = 11.0
     Generated by new atomic code, or converted to UPF format
     Using radial grid of  985 points,  3 beta functions with: 
                l(1) =   1
                l(2) =   2
                l(3) =   2
     Q(r) pseudized with  8 coefficients,  rinner =    1.100   1.100   1.100
                                                       1.100   1.100

     PseudoPot. # 2 for H  read from file:
     /home/scc/andrejb/qe/pseudo/H.pbe-van_ak.UPF
     MD5 check sum: 403db7282739603aa925980fa9b8608d
     Pseudo is Ultrasoft, Zval =  1.0
     Generated by new atomic code, or converted to UPF format
     Using radial grid of  615 points,  1 beta functions with: 
                l(1) =   0
     Q(r) pseudized with  8 coefficients,  rinner =    0.800

     PseudoPot. # 3 for O  read from file:
     /home/scc/andrejb/qe/pseudo/O.pbe-van_ak.UPF
     MD5 check sum: 4b8c549914a63cae506c6ff22b5af4fe
     Pseudo is Ultrasoft, Zval =  6.0
     Generated by new atomic code, or converted to UPF format
     Using radial grid of  737 points,  4 beta functions with: 
                l(1) =   0
                l(2) =   0
                l(3) =   1
                l(4) =   1
     Q(r) pseudized with  8 coefficients,  rinner =    0.800   0.800   0.800


     vdW kernel table read from file vdW_kernel_table
     MD5 check sum: 48e77a2e26edf626eeb0eaa751ad5cac

     atomic species   valence    mass     pseudopotential
        Au            11.00   196.96657     Au( 1.00)
        H              1.00     1.01000     H ( 1.00)
        O              6.00    16.00000     O ( 1.00)

     No symmetry found



   Cartesian axes

     site n.     atom                  positions (alat units)
         1           O   tau(   1) = (   0.5172279   0.3477086   0.7210128  )
         2           H   tau(   2) = (   0.4998324   0.3332216   0.6481573  )
         3           H   tau(   3) = (   0.4674011   0.3062305   0.7612035  )
         4           Au  tau(   4) = (   0.0000000   0.0000000   0.0000000  )
         5           Au  tau(   5) = (   0.3332217   0.0000000   0.0000000  )
         6           Au  tau(   6) = (   0.6664435   0.0000000   0.0000000  )
         7           Au  tau(   7) = (   0.1666109   0.1666109   0.0000000  )
         8           Au  tau(   8) = (   0.4998326   0.1666109   0.0000000  )
         9           Au  tau(   9) = (   0.8330542   0.1666109   0.0000000  )
        10           Au  tau(  10) = (   0.0000000   0.3332217   0.0000000  )
        11           Au  tau(  11) = (   0.3332217   0.3332217   0.0000000  )
        12           Au  tau(  12) = (   0.6664435   0.3332217   0.0000000  )
        13           Au  tau(  13) = (   0.1666109   0.4998326   0.0000000  )
        14           Au  tau(  14) = (   0.4998326   0.4998326   0.0000000  )
        15           Au  tau(  15) = (   0.8330542   0.4998326   0.0000000  )
        16           Au  tau(  16) = (   0.0000000   0.6664435   0.0000000  )
        17           Au  tau(  17) = (   0.3332217   0.6664435   0.0000000  )
        18           Au  tau(  18) = (   0.6664435   0.6664435   0.0000000  )
        19           Au  tau(  19) = (   0.1666109   0.8330542   0.0000000  )
        20           Au  tau(  20) = (   0.4998326   0.8330542   0.0000000  )
        21           Au  tau(  21) = (   0.8330542   0.8330542   0.0000000  )
        22           Au  tau(  22) = (   0.1666109   0.0000000   0.1666109  )
        23           Au  tau(  23) = (   0.4998326   0.0000000   0.1666109  )
        24           Au  tau(  24) = (   0.8330542   0.0000000   0.1666109  )
        25           Au  tau(  25) = (   0.0000000   0.1666109   0.1666109  )
        26           Au  tau(  26) = (   0.3332217   0.1666109   0.1666109  )
        27           Au  tau(  27) = (   0.6664435   0.1666109   0.1666109  )
        28           Au  tau(  28) = (   0.1666109   0.3332217   0.1666109  )
        29           Au  tau(  29) = (   0.4998326   0.3332217   0.1666109  )
        30           Au  tau(  30) = (   0.8330542   0.3332217   0.1666109  )
        31           Au  tau(  31) = (   0.0000000   0.4998326   0.1666109  )
        32           Au  tau(  32) = (   0.3332217   0.4998326   0.1666109  )
        33           Au  tau(  33) = (   0.6664435   0.4998326   0.1666109  )
        34           Au  tau(  34) = (   0.1666109   0.6664435   0.1666109  )
        35           Au  tau(  35) = (   0.4998326   0.6664435   0.1666109  )
        36           Au  tau(  36) = (   0.8330542   0.6664435   0.1666109  )
        37           Au  tau(  37) = (   0.0000000   0.8330542   0.1666109  )
        38           Au  tau(  38) = (   0.3332217   0.8330542   0.1666109  )
        39           Au  tau(  39) = (   0.6664435   0.8330542   0.1666109  )
        40           Au  tau(  40) = (  -0.0000182  -0.0000182   0.3335478  )
        41           Au  tau(  41) = (   0.3332215  -0.0000181   0.3335472  )
        42           Au  tau(  42) = (   0.6664447  -0.0000183   0.3335481  )
        43           Au  tau(  43) = (  -0.0000181   0.3332215   0.3335472  )
        44           Au  tau(  44) = (   0.3332215   0.3332215   0.3335468  )
        45           Au  tau(  45) = (   0.6664445   0.3332215   0.3335478  )
        46           Au  tau(  46) = (  -0.0000183   0.6664447   0.3335481  )
        47           Au  tau(  47) = (   0.3332215   0.6664445   0.3335478  )
        48           Au  tau(  48) = (   0.6664446   0.6664446   0.3335486  )
        49           Au  tau(  49) = (   0.1666097   0.1666097   0.3335483  )
        50           Au  tau(  50) = (   0.4998320   0.1666098   0.3335477  )
        51           Au  tau(  51) = (   0.8330732   0.1666096   0.3335481  )
        52           Au  tau(  52) = (   0.1666098   0.4998320   0.3335477  )
        53           Au  tau(  53) = (   0.4998321   0.4998321   0.3335470  )
        54           Au  tau(  54) = (   0.8330730   0.4998322   0.3335474  )
        55           Au  tau(  55) = (   0.1666096   0.8330732   0.3335481  )
        56           Au  tau(  56) = (   0.4998322   0.8330730   0.3335474  )
        57           Au  tau(  57) = (   0.8330731   0.8330731   0.3335478  )
        58           Au  tau(  58) = (   0.1666104  -0.0000111   0.4993095  )
        59           Au  tau(  59) = (   0.4998323  -0.0000112   0.4993099  )
        60           Au  tau(  60) = (   0.8330661  -0.0000111   0.4993009  )
        61           Au  tau(  61) = (  -0.0000111   0.1666104   0.4993095  )
        62           Au  tau(  62) = (   0.3332214   0.1666106   0.4993185  )
        63           Au  tau(  63) = (   0.6664437   0.1666106   0.4993187  )
        64           Au  tau(  64) = (   0.1666106   0.3332214   0.4993185  )
        65           Au  tau(  65) = (   0.4998324   0.3332216   0.4993185  )
        66           Au  tau(  66) = (   0.8330659   0.3332215   0.4993103  )
        67           Au  tau(  67) = (  -0.0000112   0.4998323   0.4993099  )
        68           Au  tau(  68) = (   0.3332216   0.4998324   0.4993185  )
        69           Au  tau(  69) = (   0.6664436   0.4998325   0.4993187  )
        70           Au  tau(  70) = (   0.1666106   0.6664437   0.4993187  )
        71           Au  tau(  71) = (   0.4998325   0.6664436   0.4993187  )
        72           Au  tau(  72) = (   0.8330658   0.6664438   0.4993102  )
        73           Au  tau(  73) = (  -0.0000111   0.8330661   0.4993009  )
        74           Au  tau(  74) = (   0.3332215   0.8330659   0.4993103  )
        75           Au  tau(  75) = (   0.6664438   0.8330658   0.4993102  )

     number of k points=     6  Marzari-Vanderbilt smearing, width (Ry)=  0.0200
                       cart. coord. in units 2pi/alat
        k(    1) = (   0.2500000   0.2500000   0.0833333), wk =   0.3333333
        k(    2) = (   0.2500000   0.2500000  -0.2500000), wk =   0.3333333
        k(    3) = (  -0.2500000  -0.2500000   0.0833333), wk =   0.3333333
        k(    4) = (  -0.2500000   0.2500000  -0.0833333), wk =   0.3333333
        k(    5) = (   0.2500000  -0.2500000  -0.0833333), wk =   0.3333333
        k(    6) = (  -0.2500000   0.2500000   0.2500000), wk =   0.3333333

     Dense  grid:  3792731 G-vectors     FFT dimensions: ( 160, 160, 320)

     Smooth grid:  1341081 G-vectors     FFT dimensions: ( 120, 120, 225)

     Largest allocated arrays     est. size (Mb)     dimensions
        Kohn-Sham Wavefunctions        38.58 Mb     (    5267,  480)
        NL pseudopotentials            76.03 Mb     (    5267,  946)
        Each V/rho on FFT grid          3.91 Mb     (  256000)
        Each G-vector array             0.90 Mb     (  118520)
        G-vector shells                 0.08 Mb     (   10286)
     Largest temporary arrays     est. size (Mb)     dimensions
        Auxiliary wavefunctions       154.31 Mb     (    5267, 1920)
        Each subspace H/S matrix       56.25 Mb     (    1920, 1920)
        Each <psi_i|beta_j> matrix      6.93 Mb     (     946,  480)
        Arrays for rho mixing          31.25 Mb     (  256000,    8)

     Initial potential from superposition of free atoms
     Check: negative starting charge=   -1.945076

     starting charge  799.16392, renormalised to  800.00000

     negative rho (up, down):  1.947E+00 0.000E+00


     ************************************************************************
     *
     * You are using vdW-DF for exchange-correlation in this calculation.
     * Please cite the following three references that made this development
     * possible:
     *
     *   M. Dion, H. Rydberg, E. Schroder, D. C. Langreth, and
     *   B. I. Lundqvist, Phys. Rev. Lett. 92, 246401 (2004).
     *
     *   T. Thonhauser, V. R. Cooper, S. Li, A. Puzder, P. Hyldgaard, and
     *   D. C. Langreth, Phys. Rev. B 76, 125112 (2007).
     *
     *   G. Roman-Perez and J. M. Soler, Phys. Rev. Lett. 103, 096102 (2009).
     *
     *
     * If you are using vdW-DF2, please also cite:
     *
     *   K. Lee, E. D. Murray, L. Kong, B. I. Lundqvist, and
     *   D. C. Langreth, Phys. Rev. B 82, 081101(R) (2010).
     *
     *
     * If you are calculating the stress with vdW-DF, please also cite:
     *
     *   R. Sabatini, E. Kucukbenli, B. Kolb, T. Thonhauser, and
     *   S. de Gironcoli, J. Phys.: Condens. Matter 24, 424209 (2012).
     *
     ************************************************************************

     Carrying out vdW-DF run using the following parameters:

     Nqs =      20    Nr_points =    1024   r_max =   100.000
     q_mesh =
               0.00001000     0.04494208     0.09755937     0.15916263
               0.23128650     0.31572767     0.41458969     0.53033537
               0.66584808     0.82450364     1.01025438     1.22772762
               1.48234092     1.78043706     2.12944203     2.53805004
               3.01644009     3.57652955     4.23227104     5.00000000

     Gradients computed in reciprocal space

     ************************************************************************


     Starting wfc are  654 randomized atomic wfcs

     total cpu time spent up to now is      166.9 secs

     Self-consistent Calculation

     iteration #  1     ecut=    50.00 Ry     beta=0.70
     Davidson diagonalization with overlap
     ethr =  1.00E-02,  avg # of iterations =  3.0

     Threshold (ethr) on eigenvalues was too large:
     Diagonalizing with lowered threshold

     Davidson diagonalization with overlap
     ethr =  4.11E-04,  avg # of iterations =  2.0

     negative rho (up, down):  1.947E+00 0.000E+00

     total cpu time spent up to now is      698.5 secs

     total energy              =   -7423.07687057 Ry
     Harris-Foulkes estimate   =   -7426.03615323 Ry
     estimated scf accuracy    <       3.65731372 Ry

     iteration #  2     ecut=    50.00 Ry     beta=0.70
     Davidson diagonalization with overlap
     ethr =  4.57E-04,  avg # of iterations = 11.5

     negative rho (up, down):  1.943E+00 0.000E+00

     total cpu time spent up to now is     1628.8 secs

     total energy              =   -7415.71704734 Ry
     Harris-Foulkes estimate   =   -7432.27326182 Ry
     estimated scf accuracy    <      84.68558442 Ry

     iteration #  3     ecut=    50.00 Ry     beta=0.70
     Davidson diagonalization with overlap
     ethr =  4.57E-04,  avg # of iterations =  6.0

     negative rho (up, down):  1.953E+00 0.000E+00

     total cpu time spent up to now is     2109.0 secs

     total energy              =   -7424.10976291 Ry
     Harris-Foulkes estimate   =   -7425.86403922 Ry
     estimated scf accuracy    <       7.31669866 Ry

     iteration #  4     ecut=    50.00 Ry     beta=0.70
     Davidson diagonalization with overlap
     ethr =  4.57E-04,  avg # of iterations =  5.0

     negative rho (up, down):  1.958E+00 0.000E+00

     total cpu time spent up to now is     2370.8 secs

     total energy              =   -7425.03949800 Ry
     Harris-Foulkes estimate   =   -7425.51863114 Ry
     estimated scf accuracy    <       1.74157510 Ry

     iteration #  5     ecut=    50.00 Ry     beta=0.70
     Davidson diagonalization with overlap
     ethr =  2.18E-04,  avg # of iterations =  7.8

     negative rho (up, down):  1.963E+00 0.000E+00

     total cpu time spent up to now is     2647.6 secs

     total energy              =   -7424.98640977 Ry
     Harris-Foulkes estimate   =   -7425.57485154 Ry
     estimated scf accuracy    <       4.78770914 Ry

     iteration #  6     ecut=    50.00 Ry     beta=0.70
     Davidson diagonalization with overlap
     ethr =  2.18E-04,  avg # of iterations =  5.2

     negative rho (up, down):  1.967E+00 0.000E+00

     total cpu time spent up to now is     2882.5 secs

     total energy              =   -7425.25273993 Ry
     Harris-Foulkes estimate   =   -7425.31469774 Ry
     estimated scf accuracy    <       0.27345394 Ry

     iteration #  7     ecut=    50.00 Ry     beta=0.70
     Davidson diagonalization with overlap
     ethr =  3.42E-05,  avg # of iterations =  3.8

     negative rho (up, down):  1.970E+00 0.000E+00

     total cpu time spent up to now is     3160.3 secs

     total energy              =   -7425.25819845 Ry
     Harris-Foulkes estimate   =   -7425.30484937 Ry
     estimated scf accuracy    <       0.24339513 Ry

     iteration #  8     ecut=    50.00 Ry     beta=0.70
     Davidson diagonalization with overlap
     ethr =  3.04E-05,  avg # of iterations =  3.0

     negative rho (up, down):  1.971E+00 0.000E+00

     total cpu time spent up to now is     3435.6 secs

     total energy              =   -7425.26684522 Ry
     Harris-Foulkes estimate   =   -7425.28628123 Ry
     estimated scf accuracy    <       0.08749055 Ry

     iteration #  9     ecut=    50.00 Ry     beta=0.70
     Davidson diagonalization with overlap
     ethr =  1.09E-05,  avg # of iterations = 10.5

     negative rho (up, down):  1.972E+00 0.000E+00

     total cpu time spent up to now is     3767.6 secs

     total energy              =   -7425.26746241 Ry
     Harris-Foulkes estimate   =   -7425.27813046 Ry
     estimated scf accuracy    <       0.03879910 Ry

     iteration # 10     ecut=    50.00 Ry     beta=0.70
     Davidson diagonalization with overlap
     ethr =  4.85E-06,  avg # of iterations =  5.7

     negative rho (up, down):  1.973E+00 0.000E+00

     total cpu time spent up to now is     4055.1 secs

     total energy              =   -7425.26841405 Ry
     Harris-Foulkes estimate   =   -7425.27194985 Ry
     estimated scf accuracy    <       0.01086499 Ry

     iteration # 11     ecut=    50.00 Ry     beta=0.70
     Davidson diagonalization with overlap
     ethr =  1.36E-06,  avg # of iterations =  7.8

     negative rho (up, down):  1.974E+00 0.000E+00

     total cpu time spent up to now is     4360.9 secs

     total energy              =   -7425.26874255 Ry
     Harris-Foulkes estimate   =   -7425.27003815 Ry
     estimated scf accuracy    <       0.00438064 Ry

     iteration # 12     ecut=    50.00 Ry     beta=0.70
     Davidson diagonalization with overlap
     ethr =  5.48E-07,  avg # of iterations =  2.3

     negative rho (up, down):  1.974E+00 0.000E+00

     total cpu time spent up to now is     4624.8 secs

     total energy              =   -7425.26814834 Ry
     Harris-Foulkes estimate   =   -7425.26930042 Ry
     estimated scf accuracy    <       0.00195931 Ry

     iteration # 13     ecut=    50.00 Ry     beta=0.70
     Davidson diagonalization with overlap
     ethr =  2.45E-07,  avg # of iterations =  5.5

     negative rho (up, down):  1.974E+00 0.000E+00

     total cpu time spent up to now is     5057.3 secs

     total energy              =   -7425.26698731 Ry
     Harris-Foulkes estimate   =   -7425.27083557 Ry
     estimated scf accuracy    <       0.02111338 Ry

     iteration # 14     ecut=    50.00 Ry     beta=0.70
     Davidson diagonalization with overlap
     ethr =  2.45E-07,  avg # of iterations =  3.0

     negative rho (up, down):  1.974E+00 0.000E+00

     total cpu time spent up to now is     5380.5 secs

     total energy              =   -7425.26875347 Ry
     Harris-Foulkes estimate   =   -7425.26892958 Ry
     estimated scf accuracy    <       0.00049864 Ry

     iteration # 15     ecut=    50.00 Ry     beta=0.70
     Davidson diagonalization with overlap
     ethr =  6.23E-08,  avg # of iterations =  3.0

     negative rho (up, down):  1.974E+00 0.000E+00

     total cpu time spent up to now is     5685.7 secs

     total energy              =   -7425.26865003 Ry
     Harris-Foulkes estimate   =   -7425.26904425 Ry
     estimated scf accuracy    <       0.00247658 Ry

     iteration # 16     ecut=    50.00 Ry     beta=0.70
     Davidson diagonalization with overlap
     ethr =  6.23E-08,  avg # of iterations =  2.0

     negative rho (up, down):  1.974E+00 0.000E+00

     total cpu time spent up to now is     5925.6 secs

     total energy              =   -7425.26879308 Ry
     Harris-Foulkes estimate   =   -7425.26895045 Ry
     estimated scf accuracy    <       0.00118066 Ry

     iteration # 17     ecut=    50.00 Ry     beta=0.70
     Davidson diagonalization with overlap
     ethr =  6.23E-08,  avg # of iterations =  2.0

     negative rho (up, down):  1.974E+00 0.000E+00

     total cpu time spent up to now is     6172.9 secs

     total energy              =   -7425.26884760 Ry
     Harris-Foulkes estimate   =   -7425.26889444 Ry
     estimated scf accuracy    <       0.00019921 Ry

     iteration # 18     ecut=    50.00 Ry     beta=0.70
     Davidson diagonalization with overlap
     ethr =  2.49E-08,  avg # of iterations =  2.0

     negative rho (up, down):  1.974E+00 0.000E+00

     total cpu time spent up to now is     6472.2 secs

     total energy              =   -7425.26886899 Ry
     Harris-Foulkes estimate   =   -7425.26887858 Ry
     estimated scf accuracy    <       0.00003994 Ry

     iteration # 19     ecut=    50.00 Ry     beta=0.70
     Davidson diagonalization with overlap
     ethr =  4.99E-09,  avg # of iterations =  2.0

     negative rho (up, down):  1.974E+00 0.000E+00

     total cpu time spent up to now is     6711.2 secs

     total energy              =   -7425.26887258 Ry
     Harris-Foulkes estimate   =   -7425.26887635 Ry
     estimated scf accuracy    <       0.00001495 Ry

     iteration # 20     ecut=    50.00 Ry     beta=0.70
     Davidson diagonalization with overlap
     ethr =  1.87E-09,  avg # of iterations =  2.0

     negative rho (up, down):  1.974E+00 0.000E+00

     total cpu time spent up to now is     6925.5 secs

     total energy              =   -7425.26887404 Ry
     Harris-Foulkes estimate   =   -7425.26887558 Ry
     estimated scf accuracy    <       0.00000539 Ry

     iteration # 21     ecut=    50.00 Ry     beta=0.70
     Davidson diagonalization with overlap
     ethr =  6.74E-10,  avg # of iterations =  2.0

     negative rho (up, down):  1.974E+00 0.000E+00

     total cpu time spent up to now is     7195.9 secs

     total energy              =   -7425.26887485 Ry
     Harris-Foulkes estimate   =   -7425.26887495 Ry
     estimated scf accuracy    <       0.00000044 Ry

     iteration # 22     ecut=    50.00 Ry     beta=0.70
     Davidson diagonalization with overlap
     ethr =  5.49E-11,  avg # of iterations =  3.0

     negative rho (up, down):  1.974E+00 0.000E+00

     total cpu time spent up to now is     7549.6 secs

     total energy              =   -7425.26887495 Ry
     Harris-Foulkes estimate   =   -7425.26887501 Ry
     estimated scf accuracy    <       0.00000025 Ry

     iteration # 23     ecut=    50.00 Ry     beta=0.70
     Davidson diagonalization with overlap
     ethr =  3.09E-11,  avg # of iterations =  3.0

     negative rho (up, down):  1.974E+00 0.000E+00

     total cpu time spent up to now is     7832.9 secs

     total energy              =   -7425.26887494 Ry
     Harris-Foulkes estimate   =   -7425.26887504 Ry
     estimated scf accuracy    <       0.00000035 Ry

     iteration # 24     ecut=    50.00 Ry     beta=0.70
     Davidson diagonalization with overlap
     ethr =  3.09E-11,  avg # of iterations =  2.0

     negative rho (up, down):  1.974E+00 0.000E+00

     total cpu time spent up to now is     8079.9 secs

     total energy              =   -7425.26887501 Ry
     Harris-Foulkes estimate   =   -7425.26887501 Ry
     estimated scf accuracy    <       0.00000012 Ry

     iteration # 25     ecut=    50.00 Ry     beta=0.70
     Davidson diagonalization with overlap
     ethr =  1.44E-11,  avg # of iterations =  2.0

     negative rho (up, down):  1.974E+00 0.000E+00

     total cpu time spent up to now is     8322.8 secs

     total energy              =   -7425.26887503 Ry
     Harris-Foulkes estimate   =   -7425.26887502 Ry
     estimated scf accuracy    <       0.00000002 Ry

     iteration # 26     ecut=    50.00 Ry     beta=0.70
     Davidson diagonalization with overlap
     ethr =  2.47E-12,  avg # of iterations =  3.0

     negative rho (up, down):  1.974E+00 0.000E+00

     total cpu time spent up to now is     8604.0 secs

     total energy              =   -7425.26887503 Ry
     Harris-Foulkes estimate   =   -7425.26887504 Ry
     estimated scf accuracy    <       0.00000007 Ry

     iteration # 27     ecut=    50.00 Ry     beta=0.70
     Davidson diagonalization with overlap
     ethr =  2.47E-12,  avg # of iterations =  2.0

     negative rho (up, down):  1.974E+00 0.000E+00

     total cpu time spent up to now is     8852.3 secs

     total energy              =   -7425.26887504 Ry
     Harris-Foulkes estimate   =   -7425.26887504 Ry
     estimated scf accuracy    <       0.00000003 Ry

     iteration # 28     ecut=    50.00 Ry     beta=0.70
     Davidson diagonalization with overlap
     ethr =  2.47E-12,  avg # of iterations =  2.0

     negative rho (up, down):  1.974E+00 0.000E+00

     total cpu time spent up to now is     9093.2 secs

     total energy              =   -7425.26887504 Ry
     Harris-Foulkes estimate   =   -7425.26887504 Ry
     estimated scf accuracy    <       0.00000002 Ry

     iteration # 29     ecut=    50.00 Ry     beta=0.70
     Davidson diagonalization with overlap
     ethr =  2.47E-12,  avg # of iterations =  2.0

     negative rho (up, down):  1.974E+00 0.000E+00

     total cpu time spent up to now is     9327.5 secs

     End of self-consistent calculation

          k = 0.2500 0.2500 0.0833 (167653 PWs)   bands (ev):

   -19.2646  -7.4491  -6.8611  -6.3352  -6.3344  -5.9062  -5.4964  -5.4053
    -5.4034  -5.2098  -5.2077  -5.0910  -5.0892  -5.0127  -4.9890  -4.9165
    -4.8325  -4.8275  -4.7890  -4.7882  -4.6295  -4.6131  -4.6114  -4.6088
    -4.6024  -4.5478  -4.5473  -4.5368  -4.5341  -4.4984  -4.4879  -4.4841
    -4.4447  -4.4430  -4.4110  -4.4093  -4.3612  -4.3552  -4.3475  -4.3457
    -4.3392  -4.3270  -4.3259  -4.2870  -4.2689  -4.2668  -4.2602  -4.2590
    -4.2283  -4.1799  -4.1662  -4.1628  -4.1612  -4.1570  -4.1518  -4.1468
    -4.1455  -4.1437  -4.0844  -4.0780  -4.0363  -4.0283  -4.0181  -3.9936
    -3.9913  -3.9761  -3.9684  -3.9673  -3.9649  -3.9614  -3.9136  -3.9132
    -3.9014  -3.8979  -3.8064  -3.7937  -3.7923  -3.7857  -3.7520  -3.7476
    -3.7281  -3.7046  -3.6998  -3.6740  -3.6663  -3.6579  -3.6464  -3.6384
    -3.6311  -3.5915  -3.5773  -3.5682  -3.5593  -3.5394  -3.5354  -3.5306
    -3.5293  -3.5171  -3.5025  -3.4898  -3.4679  -3.4533  -3.4485  -3.4337
    -3.4144  -3.4053  -3.3945  -3.3679  -3.3638  -3.3291  -3.3259  -3.2901
    -3.2831  -3.2813  -3.2687  -3.2676  -3.2629  -3.2592  -3.2293  -3.2138
    -3.1767  -3.1736  -3.1653  -3.1559  -3.1548  -3.1497  -3.1313  -3.1307
    -3.1106  -3.1093  -3.1068  -3.0833  -3.0825  -3.0746  -3.0731  -3.0685
    -3.0349  -3.0324  -2.9991  -2.9946  -2.9933  -2.9929  -2.9904  -2.9118
    -2.9048  -2.9027  -2.9004  -2.8961  -2.8953  -2.8923  -2.8912  -2.8898
    -2.8893  -2.8808  -2.8728  -2.8575  -2.8563  -2.8514  -2.8484  -2.8384
    -2.8368  -2.7982  -2.7948  -2.7945  -2.7887  -2.7883  -2.7729  -2.7705
    -2.7654  -2.7628  -2.7596  -2.7040  -2.7034  -2.7000  -2.6956  -2.6924
    -2.6872  -2.6625  -2.6075  -2.6045  -2.6015  -2.5991  -2.5903  -2.5870
    -2.5805  -2.5736  -2.5712  -2.5401  -2.5350  -2.5312  -2.5274  -2.5227
    -2.5220  -2.4871  -2.4866  -2.4775  -2.4750  -2.4730  -2.4706  -2.4303
    -2.4134  -2.4081  -2.3602  -2.3561  -2.3441  -2.3401  -2.3298  -2.3275
    -2.2855  -2.2791  -2.2593  -2.2490  -2.2359  -2.2278  -2.2241  -2.2068
    -2.2039  -2.1957  -2.1766  -2.1504  -2.1400  -2.1262  -2.1211  -2.1204
    -2.1184  -2.1110  -2.1081  -2.0977  -2.0934  -2.0915  -2.0869  -2.0841
    -2.0829  -2.0783  -2.0717  -2.0566  -2.0550  -2.0529  -2.0501  -2.0457
    -2.0420  -2.0248  -2.0180  -2.0087  -2.0077  -2.0002  -1.9998  -1.9633
    -1.9319  -1.9307  -1.8954  -1.8926  -1.8794  -1.8730  -1.8632  -1.8463
    -1.8426  -1.8356  -1.8301  -1.8273  -1.8240  -1.8232  -1.8194  -1.7897
    -1.7892  -1.7881  -1.7455  -1.7446  -1.7104  -1.7004  -1.6576  -1.6565
    -1.6435  -1.6269  -1.6174  -1.6140  -1.6079  -1.6021  -1.5827  -1.5811
    -1.5798  -1.5751  -1.5713  -1.5704  -1.5682  -1.5679  -1.5517  -1.5460
    -1.5351  -1.5213  -1.5069  -1.5055  -1.4816  -1.4767  -1.4714  -1.4696
    -1.4667  -1.4627  -1.4534  -1.4399  -1.4287  -1.4252  -1.4161  -1.4071
    -1.3943  -1.3902  -1.3672  -1.3604  -1.3568  -1.3502  -1.3232  -1.3212
    -1.3099  -1.3067  -1.3057  -1.2994  -1.2802  -1.2789  -1.2724  -1.2634
    -1.2618  -1.2527  -1.2484  -1.2436  -1.2417  -1.2353  -1.2284  -1.2210
    -1.2124  -1.2120  -1.2060  -1.1993  -1.1953  -1.1882  -1.1707  -1.1498
    -1.1435  -1.1422  -1.1410  -1.1374  -1.1266  -1.1006  -1.0837  -1.0807
    -1.0805  -1.0790  -1.0740  -1.0718  -1.0591  -1.0573  -1.0469  -1.0226
    -1.0191  -1.0130  -1.0120  -0.9915  -0.9895  -0.9800  -0.9524  -0.9423
    -0.9192  -0.9136  -0.8897  -0.8879  -0.8841  -0.8837  -0.8808  -0.8762
    -0.8741  -0.8730  -0.8691  -0.8669  -0.8376  -0.8350  -0.8161  -0.8148
    -0.8131  -0.8107  -0.8087  -0.8038  -0.7920  -0.5215  -0.5040  -0.4439
    -0.4427  -0.4110  -0.2502  -0.1871  -0.1832  -0.1471   0.1359   0.1373
     0.4678   0.4688   0.5624   0.5645   0.6033   0.6070   0.7499   0.7551
     0.8708   0.8755   0.9720   1.5617   1.5768   1.5791   1.6182   1.6234
     1.6755   1.6768   1.7460   1.7522   1.9526   1.9572   2.1964   2.2679
     2.2747   2.2866   2.6700   2.6740   2.7389   2.7412   2.7464   2.7504
     2.8984   2.9003   2.9639   3.0416   3.0496   3.2722   3.2765   3.4074
     3.4319   3.4406   3.7051   3.7127   3.8221   3.8394   3.8417   3.9259
     3.9340   4.0224   4.0303   4.2588   4.2657   4.3548   4.3606   4.4728
     4.4785   4.4996   4.5090   4.6752   5.1912   5.3195   5.3432   5.4055
     5.4093   5.5452   5.5827   5.5920   5.6588   5.7006   5.7085   5.7171
     5.7433   5.7543   5.7598   5.8065   6.0158   6.0686   6.0806   6.0934
     6.0984   6.1050   6.1093   6.1108   6.1121   6.1503   6.1954   6.2033

          k = 0.2500 0.2500-0.2500 (167588 PWs)   bands (ev):

   -19.2646  -7.4491  -6.8611  -6.3352  -6.3344  -5.9062  -5.4964  -5.4053
    -5.4034  -5.2098  -5.2077  -5.0910  -5.0892  -5.0127  -4.9890  -4.9165
    -4.8325  -4.8275  -4.7890  -4.7882  -4.6295  -4.6131  -4.6114  -4.6088
    -4.6024  -4.5478  -4.5473  -4.5368  -4.5341  -4.4984  -4.4879  -4.4841
    -4.4447  -4.4430  -4.4110  -4.4093  -4.3612  -4.3552  -4.3475  -4.3457
    -4.3392  -4.3270  -4.3259  -4.2870  -4.2689  -4.2668  -4.2602  -4.2590
    -4.2283  -4.1799  -4.1662  -4.1628  -4.1612  -4.1570  -4.1518  -4.1468
    -4.1456  -4.1437  -4.0844  -4.0780  -4.0363  -4.0283  -4.0181  -3.9936
    -3.9913  -3.9761  -3.9684  -3.9673  -3.9649  -3.9614  -3.9136  -3.9132
    -3.9014  -3.8979  -3.8064  -3.7937  -3.7923  -3.7857  -3.7520  -3.7476
    -3.7281  -3.7046  -3.6998  -3.6740  -3.6663  -3.6579  -3.6464  -3.6384
    -3.6311  -3.5915  -3.5773  -3.5682  -3.5593  -3.5394  -3.5354  -3.5306
    -3.5293  -3.5171  -3.5025  -3.4898  -3.4679  -3.4532  -3.4485  -3.4337
    -3.4144  -3.4053  -3.3945  -3.3679  -3.3638  -3.3291  -3.3259  -3.2901
    -3.2831  -3.2813  -3.2687  -3.2676  -3.2629  -3.2592  -3.2293  -3.2138
    -3.1767  -3.1736  -3.1653  -3.1559  -3.1548  -3.1497  -3.1313  -3.1307
    -3.1106  -3.1093  -3.1068  -3.0833  -3.0825  -3.0746  -3.0731  -3.0684
    -3.0349  -3.0324  -2.9991  -2.9946  -2.9933  -2.9929  -2.9904  -2.9118
    -2.9048  -2.9027  -2.9004  -2.8961  -2.8953  -2.8923  -2.8912  -2.8898
    -2.8892  -2.8808  -2.8728  -2.8575  -2.8562  -2.8514  -2.8484  -2.8384
    -2.8368  -2.7982  -2.7948  -2.7945  -2.7887  -2.7883  -2.7729  -2.7705
    -2.7654  -2.7628  -2.7596  -2.7040  -2.7034  -2.7000  -2.6956  -2.6924
    -2.6872  -2.6625  -2.6075  -2.6045  -2.6015  -2.5991  -2.5903  -2.5870
    -2.5805  -2.5736  -2.5712  -2.5401  -2.5350  -2.5312  -2.5274  -2.5227
    -2.5220  -2.4871  -2.4866  -2.4775  -2.4750  -2.4730  -2.4706  -2.4303
    -2.4134  -2.4081  -2.3602  -2.3561  -2.3441  -2.3401  -2.3298  -2.3275
    -2.2855  -2.2791  -2.2593  -2.2490  -2.2359  -2.2278  -2.2241  -2.2068
    -2.2039  -2.1957  -2.1766  -2.1504  -2.1400  -2.1262  -2.1211  -2.1204
    -2.1184  -2.1110  -2.1081  -2.0977  -2.0934  -2.0915  -2.0869  -2.0841
    -2.0829  -2.0783  -2.0717  -2.0566  -2.0550  -2.0529  -2.0501  -2.0457
    -2.0420  -2.0248  -2.0180  -2.0087  -2.0077  -2.0002  -1.9998  -1.9633
    -1.9319  -1.9307  -1.8954  -1.8926  -1.8794  -1.8730  -1.8631  -1.8463
    -1.8426  -1.8356  -1.8301  -1.8273  -1.8240  -1.8232  -1.8194  -1.7897
    -1.7892  -1.7881  -1.7455  -1.7446  -1.7104  -1.7004  -1.6576  -1.6565
    -1.6435  -1.6269  -1.6174  -1.6140  -1.6079  -1.6021  -1.5827  -1.5811
    -1.5798  -1.5751  -1.5713  -1.5704  -1.5682  -1.5679  -1.5517  -1.5460
    -1.5351  -1.5213  -1.5069  -1.5055  -1.4816  -1.4767  -1.4714  -1.4696
    -1.4667  -1.4627  -1.4534  -1.4399  -1.4287  -1.4252  -1.4161  -1.4071
    -1.3943  -1.3902  -1.3672  -1.3604  -1.3568  -1.3502  -1.3232  -1.3212
    -1.3099  -1.3067  -1.3057  -1.2994  -1.2801  -1.2789  -1.2724  -1.2634
    -1.2618  -1.2527  -1.2484  -1.2436  -1.2417  -1.2353  -1.2284  -1.2210
    -1.2124  -1.2120  -1.2060  -1.1993  -1.1953  -1.1882  -1.1707  -1.1498
    -1.1435  -1.1422  -1.1410  -1.1374  -1.1266  -1.1006  -1.0837  -1.0807
    -1.0805  -1.0790  -1.0740  -1.0718  -1.0591  -1.0573  -1.0469  -1.0226
    -1.0191  -1.0130  -1.0120  -0.9915  -0.9895  -0.9800  -0.9524  -0.9423
    -0.9192  -0.9136  -0.8897  -0.8879  -0.8841  -0.8837  -0.8808  -0.8762
    -0.8741  -0.8730  -0.8691  -0.8669  -0.8376  -0.8350  -0.8161  -0.8148
    -0.8131  -0.8107  -0.8087  -0.8038  -0.7920  -0.5215  -0.5040  -0.4439
    -0.4427  -0.4110  -0.2502  -0.1871  -0.1832  -0.1471   0.1359   0.1373
     0.4678   0.4688   0.5624   0.5645   0.6033   0.6070   0.7499   0.7551
     0.8708   0.8755   0.9720   1.5617   1.5768   1.5791   1.6182   1.6234
     1.6755   1.6768   1.7460   1.7522   1.9527   1.9572   2.1964   2.2679
     2.2747   2.2866   2.6700   2.6740   2.7389   2.7412   2.7464   2.7504
     2.8984   2.9003   2.9639   3.0416   3.0496   3.2722   3.2765   3.4074
     3.4319   3.4407   3.7051   3.7127   3.8221   3.8394   3.8417   3.9260
     3.9341   4.0225   4.0303   4.2588   4.2657   4.3548   4.3606   4.4728
     4.4785   4.4996   4.5090   4.6753   5.1814   5.3197   5.3364   5.4047
     5.4093   5.5505   5.5828   5.5920   5.6657   5.7060   5.7067   5.7247
     5.7522   5.7597   5.7696   5.8068   6.0352   6.0704   6.0813   6.0961
     6.0991   6.1031   6.1052   6.1108   6.1129   6.1487   6.1885   6.2431

          k =-0.2500-0.2500 0.0833 (167653 PWs)   bands (ev):

   -19.2646  -7.4491  -6.8611  -6.3352  -6.3344  -5.9062  -5.4964  -5.4053
    -5.4034  -5.2098  -5.2077  -5.0910  -5.0892  -5.0127  -4.9890  -4.9165
    -4.8325  -4.8275  -4.7890  -4.7882  -4.6295  -4.6131  -4.6114  -4.6088
    -4.6024  -4.5478  -4.5473  -4.5368  -4.5341  -4.4984  -4.4879  -4.4841
    -4.4447  -4.4430  -4.4110  -4.4093  -4.3612  -4.3552  -4.3475  -4.3457
    -4.3392  -4.3270  -4.3259  -4.2870  -4.2689  -4.2668  -4.2602  -4.2590
    -4.2283  -4.1799  -4.1662  -4.1628  -4.1612  -4.1570  -4.1518  -4.1468
    -4.1455  -4.1437  -4.0844  -4.0780  -4.0363  -4.0283  -4.0181  -3.9936
    -3.9913  -3.9761  -3.9684  -3.9673  -3.9649  -3.9614  -3.9136  -3.9132
    -3.9014  -3.8979  -3.8064  -3.7937  -3.7923  -3.7857  -3.7520  -3.7476
    -3.7281  -3.7046  -3.6998  -3.6740  -3.6663  -3.6579  -3.6464  -3.6384
    -3.6311  -3.5915  -3.5773  -3.5682  -3.5593  -3.5394  -3.5354  -3.5306
    -3.5293  -3.5171  -3.5025  -3.4898  -3.4679  -3.4533  -3.4485  -3.4337
    -3.4144  -3.4053  -3.3945  -3.3679  -3.3638  -3.3291  -3.3259  -3.2901
    -3.2831  -3.2813  -3.2687  -3.2676  -3.2629  -3.2592  -3.2293  -3.2138
    -3.1767  -3.1736  -3.1653  -3.1559  -3.1548  -3.1497  -3.1313  -3.1307
    -3.1106  -3.1093  -3.1068  -3.0833  -3.0825  -3.0746  -3.0731  -3.0685
    -3.0349  -3.0324  -2.9991  -2.9946  -2.9933  -2.9929  -2.9904  -2.9118
    -2.9048  -2.9027  -2.9004  -2.8961  -2.8953  -2.8923  -2.8912  -2.8898
    -2.8893  -2.8808  -2.8728  -2.8575  -2.8562  -2.8514  -2.8484  -2.8384
    -2.8368  -2.7982  -2.7948  -2.7945  -2.7887  -2.7883  -2.7729  -2.7705
    -2.7654  -2.7628  -2.7596  -2.7040  -2.7034  -2.7000  -2.6956  -2.6924
    -2.6872  -2.6625  -2.6075  -2.6045  -2.6015  -2.5991  -2.5903  -2.5870
    -2.5805  -2.5736  -2.5712  -2.5401  -2.5350  -2.5312  -2.5274  -2.5227
    -2.5220  -2.4871  -2.4866  -2.4775  -2.4750  -2.4730  -2.4706  -2.4303
    -2.4134  -2.4081  -2.3602  -2.3561  -2.3441  -2.3401  -2.3298  -2.3275
    -2.2855  -2.2791  -2.2593  -2.2490  -2.2359  -2.2278  -2.2241  -2.2068
    -2.2039  -2.1957  -2.1766  -2.1504  -2.1400  -2.1262  -2.1211  -2.1204
    -2.1184  -2.1110  -2.1081  -2.0977  -2.0934  -2.0915  -2.0869  -2.0841
    -2.0829  -2.0783  -2.0717  -2.0566  -2.0550  -2.0529  -2.0501  -2.0457
    -2.0420  -2.0248  -2.0180  -2.0087  -2.0077  -2.0002  -1.9998  -1.9633
    -1.9319  -1.9307  -1.8954  -1.8926  -1.8794  -1.8730  -1.8632  -1.8463
    -1.8426  -1.8356  -1.8301  -1.8273  -1.8240  -1.8232  -1.8194  -1.7897
    -1.7892  -1.7881  -1.7455  -1.7446  -1.7104  -1.7004  -1.6576  -1.6565
    -1.6435  -1.6269  -1.6174  -1.6140  -1.6079  -1.6021  -1.5827  -1.5811
    -1.5798  -1.5751  -1.5713  -1.5704  -1.5682  -1.5679  -1.5517  -1.5460
    -1.5351  -1.5213  -1.5069  -1.5055  -1.4816  -1.4767  -1.4714  -1.4696
    -1.4667  -1.4627  -1.4534  -1.4399  -1.4287  -1.4252  -1.4161  -1.4071
    -1.3943  -1.3902  -1.3672  -1.3604  -1.3568  -1.3502  -1.3232  -1.3212
    -1.3099  -1.3067  -1.3057  -1.2994  -1.2802  -1.2789  -1.2724  -1.2634
    -1.2618  -1.2527  -1.2484  -1.2436  -1.2417  -1.2353  -1.2284  -1.2210
    -1.2124  -1.2120  -1.2060  -1.1993  -1.1953  -1.1882  -1.1707  -1.1498
    -1.1435  -1.1422  -1.1410  -1.1374  -1.1266  -1.1006  -1.0837  -1.0807
    -1.0805  -1.0790  -1.0740  -1.0718  -1.0591  -1.0573  -1.0469  -1.0226
    -1.0191  -1.0130  -1.0120  -0.9915  -0.9895  -0.9800  -0.9524  -0.9423
    -0.9192  -0.9136  -0.8897  -0.8879  -0.8841  -0.8837  -0.8808  -0.8762
    -0.8741  -0.8730  -0.8691  -0.8669  -0.8376  -0.8350  -0.8161  -0.8148
    -0.8131  -0.8107  -0.8087  -0.8038  -0.7920  -0.5215  -0.5040  -0.4439
    -0.4427  -0.4110  -0.2502  -0.1871  -0.1832  -0.1471   0.1359   0.1373
     0.4678   0.4688   0.5624   0.5645   0.6033   0.6070   0.7499   0.7551
     0.8708   0.8755   0.9720   1.5617   1.5768   1.5791   1.6182   1.6234
     1.6755   1.6768   1.7460   1.7522   1.9526   1.9572   2.1964   2.2679
     2.2747   2.2866   2.6700   2.6740   2.7389   2.7412   2.7464   2.7504
     2.8984   2.9003   2.9639   3.0416   3.0496   3.2722   3.2765   3.4074
     3.4319   3.4406   3.7051   3.7127   3.8221   3.8394   3.8417   3.9259
     3.9340   4.0224   4.0303   4.2588   4.2657   4.3548   4.3606   4.4728
     4.4785   4.4996   4.5090   4.6752   5.1907   5.3195   5.3448   5.4054
     5.4093   5.5410   5.5826   5.5920   5.6599   5.7021   5.7086   5.7204
     5.7432   5.7547   5.7598   5.8068   6.0175   6.0687   6.0809   6.0934
     6.0988   6.1051   6.1078   6.1108   6.1125   6.1504   6.1894   6.1953

          k =-0.2500 0.2500-0.0833 (167653 PWs)   bands (ev):

   -19.2646  -7.4491  -6.8611  -6.3357  -6.3339  -5.9061  -5.4964  -5.4052
    -5.4035  -5.2098  -5.2077  -5.0916  -5.0887  -5.0127  -4.9889  -4.9164
    -4.8327  -4.8275  -4.7891  -4.7882  -4.6296  -4.6125  -4.6116  -4.6090
    -4.6024  -4.5479  -4.5472  -4.5365  -4.5343  -4.4984  -4.4877  -4.4842
    -4.4447  -4.4430  -4.4109  -4.4095  -4.3609  -4.3555  -4.3475  -4.3456
    -4.3393  -4.3270  -4.3259  -4.2870  -4.2689  -4.2668  -4.2600  -4.2591
    -4.2282  -4.1798  -4.1668  -4.1627  -4.1614  -4.1573  -4.1518  -4.1469
    -4.1455  -4.1437  -4.0840  -4.0784  -4.0355  -4.0284  -4.0178  -3.9936
    -3.9920  -3.9769  -3.9680  -3.9677  -3.9652  -3.9614  -3.9146  -3.9124
    -3.9012  -3.8981  -3.7987  -3.7956  -3.7924  -3.7858  -3.7525  -3.7476
    -3.7289  -3.7082  -3.6983  -3.6725  -3.6665  -3.6565  -3.6464  -3.6395
    -3.6315  -3.6020  -3.5774  -3.5749  -3.5479  -3.5377  -3.5367  -3.5296
    -3.5292  -3.5132  -3.5024  -3.4937  -3.4666  -3.4495  -3.4449  -3.4399
    -3.4111  -3.4086  -3.3945  -3.3640  -3.3631  -3.3291  -3.3260  -3.2923
    -3.2830  -3.2810  -3.2704  -3.2686  -3.2629  -3.2604  -3.2291  -3.2140
    -3.1764  -3.1737  -3.1653  -3.1558  -3.1550  -3.1501  -3.1314  -3.1306
    -3.1105  -3.1096  -3.1068  -3.0826  -3.0817  -3.0749  -3.0719  -3.0686
    -3.0346  -3.0324  -2.9993  -2.9959  -2.9945  -2.9927  -2.9905  -2.9119
    -2.9051  -2.9031  -2.8997  -2.8963  -2.8953  -2.8921  -2.8905  -2.8895
    -2.8892  -2.8806  -2.8727  -2.8588  -2.8544  -2.8509  -2.8489  -2.8387
    -2.8341  -2.7987  -2.7947  -2.7942  -2.7914  -2.7884  -2.7729  -2.7707
    -2.7643  -2.7631  -2.7596  -2.7063  -2.7016  -2.6977  -2.6958  -2.6914
    -2.6869  -2.6633  -2.6055  -2.6047  -2.6013  -2.5990  -2.5892  -2.5866
    -2.5799  -2.5745  -2.5705  -2.5415  -2.5328  -2.5301  -2.5267  -2.5253
    -2.5223  -2.4874  -2.4854  -2.4775  -2.4765  -2.4732  -2.4706  -2.4330
    -2.4168  -2.4113  -2.3625  -2.3548  -2.3437  -2.3399  -2.3297  -2.3283
    -2.2884  -2.2793  -2.2591  -2.2519  -2.2331  -2.2279  -2.2240  -2.2073
    -2.2030  -2.1956  -2.1767  -2.1526  -2.1381  -2.1293  -2.1209  -2.1196
    -2.1158  -2.1114  -2.1097  -2.0959  -2.0931  -2.0918  -2.0878  -2.0841
    -2.0827  -2.0776  -2.0729  -2.0583  -2.0541  -2.0527  -2.0484  -2.0455
    -2.0421  -2.0245  -2.0189  -2.0088  -2.0073  -1.9998  -1.9996  -1.9634
    -1.9318  -1.9295  -1.8949  -1.8820  -1.8796  -1.8697  -1.8650  -1.8499
    -1.8434  -1.8317  -1.8282  -1.8261  -1.8239  -1.8233  -1.8197  -1.7901
    -1.7890  -1.7879  -1.7465  -1.7441  -1.7087  -1.7010  -1.6637  -1.6570
    -1.6447  -1.6233  -1.6174  -1.6161  -1.6131  -1.5975  -1.5870  -1.5811
    -1.5757  -1.5746  -1.5713  -1.5704  -1.5682  -1.5670  -1.5504  -1.5464
    -1.5352  -1.5210  -1.5061  -1.5019  -1.4921  -1.4739  -1.4727  -1.4702
    -1.4696  -1.4631  -1.4466  -1.4402  -1.4317  -1.4269  -1.4172  -1.4070
    -1.3957  -1.3892  -1.3654  -1.3635  -1.3545  -1.3519  -1.3262  -1.3136
    -1.3107  -1.3063  -1.3029  -1.3015  -1.2821  -1.2761  -1.2727  -1.2684
    -1.2574  -1.2533  -1.2493  -1.2443  -1.2425  -1.2320  -1.2275  -1.2187
    -1.2123  -1.2105  -1.2068  -1.1959  -1.1940  -1.1882  -1.1681  -1.1486
    -1.1440  -1.1409  -1.1385  -1.1373  -1.1312  -1.1019  -1.0817  -1.0810
    -1.0804  -1.0790  -1.0780  -1.0714  -1.0648  -1.0571  -1.0562  -1.0214
    -1.0195  -1.0131  -1.0113  -0.9913  -0.9899  -0.9800  -0.9534  -0.9425
    -0.9192  -0.9136  -0.8887  -0.8881  -0.8839  -0.8837  -0.8808  -0.8758
    -0.8731  -0.8718  -0.8690  -0.8669  -0.8373  -0.8359  -0.8181  -0.8150
    -0.8108  -0.8098  -0.8089  -0.8057  -0.7921  -0.5214  -0.5041  -0.4473
    -0.4407  -0.4107  -0.2476  -0.1859  -0.1835  -0.1457   0.1354   0.1372
     0.4661   0.4708   0.5633   0.5639   0.6045   0.6074   0.7514   0.7523
     0.8708   0.8751   0.9722   1.5620   1.5769   1.5786   1.6153   1.6234
     1.6698   1.6832   1.7471   1.7511   1.9535   1.9565   2.1961   2.2671
     2.2752   2.2868   2.6667   2.6768   2.7394   2.7408   2.7466   2.7503
     2.8990   2.8998   2.9625   3.0455   3.0491   3.2742   3.2764   3.4074
     3.4324   3.4398   3.7069   3.7115   3.8191   3.8394   3.8419   3.9152
     3.9473   4.0234   4.0302   4.2594   4.2653   4.3547   4.3608   4.4716
     4.4783   4.4956   4.5102   4.6717   5.1862   5.3299   5.3360   5.4064
     5.4128   5.5377   5.5836   5.5915   5.6553   5.7012   5.7056   5.7125
     5.7559   5.7589   5.7630   5.8073   6.0295   6.0667   6.0809   6.0969
     6.0998   6.1030   6.1074   6.1097   6.1111   6.1589   6.1693   6.2148

          k = 0.2500-0.2500-0.0833 (167653 PWs)   bands (ev):

   -19.2646  -7.4491  -6.8611  -6.3357  -6.3339  -5.9061  -5.4964  -5.4052
    -5.4035  -5.2098  -5.2077  -5.0916  -5.0887  -5.0127  -4.9889  -4.9164
    -4.8327  -4.8275  -4.7891  -4.7882  -4.6296  -4.6125  -4.6116  -4.6090
    -4.6024  -4.5479  -4.5472  -4.5365  -4.5343  -4.4984  -4.4877  -4.4842
    -4.4447  -4.4430  -4.4109  -4.4095  -4.3609  -4.3555  -4.3475  -4.3456
    -4.3393  -4.3270  -4.3259  -4.2870  -4.2689  -4.2668  -4.2600  -4.2591
    -4.2282  -4.1798  -4.1668  -4.1627  -4.1614  -4.1573  -4.1518  -4.1469
    -4.1455  -4.1437  -4.0840  -4.0784  -4.0355  -4.0284  -4.0178  -3.9936
    -3.9920  -3.9769  -3.9680  -3.9677  -3.9652  -3.9614  -3.9146  -3.9124
    -3.9012  -3.8981  -3.7987  -3.7956  -3.7924  -3.7858  -3.7525  -3.7476
    -3.7289  -3.7082  -3.6983  -3.6725  -3.6665  -3.6565  -3.6464  -3.6395
    -3.6315  -3.6020  -3.5774  -3.5749  -3.5479  -3.5377  -3.5367  -3.5296
    -3.5292  -3.5132  -3.5024  -3.4937  -3.4666  -3.4495  -3.4449  -3.4399
    -3.4111  -3.4086  -3.3945  -3.3640  -3.3631  -3.3291  -3.3260  -3.2923
    -3.2830  -3.2810  -3.2704  -3.2686  -3.2629  -3.2604  -3.2291  -3.2140
    -3.1764  -3.1737  -3.1653  -3.1558  -3.1550  -3.1501  -3.1314  -3.1306
    -3.1105  -3.1096  -3.1068  -3.0826  -3.0817  -3.0749  -3.0719  -3.0686
    -3.0346  -3.0324  -2.9993  -2.9959  -2.9945  -2.9927  -2.9905  -2.9119
    -2.9051  -2.9031  -2.8997  -2.8963  -2.8953  -2.8921  -2.8905  -2.8895
    -2.8892  -2.8806  -2.8727  -2.8588  -2.8544  -2.8509  -2.8489  -2.8387
    -2.8341  -2.7987  -2.7947  -2.7942  -2.7914  -2.7884  -2.7729  -2.7707
    -2.7643  -2.7631  -2.7596  -2.7063  -2.7016  -2.6977  -2.6958  -2.6914
    -2.6869  -2.6633  -2.6055  -2.6047  -2.6013  -2.5990  -2.5892  -2.5866
    -2.5799  -2.5745  -2.5705  -2.5415  -2.5328  -2.5301  -2.5267  -2.5253
    -2.5223  -2.4874  -2.4854  -2.4775  -2.4765  -2.4732  -2.4706  -2.4330
    -2.4168  -2.4113  -2.3625  -2.3548  -2.3437  -2.3399  -2.3297  -2.3283
    -2.2884  -2.2793  -2.2591  -2.2519  -2.2331  -2.2279  -2.2240  -2.2073
    -2.2030  -2.1956  -2.1767  -2.1526  -2.1381  -2.1293  -2.1209  -2.1196
    -2.1158  -2.1114  -2.1097  -2.0959  -2.0931  -2.0918  -2.0878  -2.0841
    -2.0827  -2.0776  -2.0729  -2.0583  -2.0541  -2.0527  -2.0484  -2.0455
    -2.0421  -2.0245  -2.0189  -2.0088  -2.0073  -1.9998  -1.9996  -1.9634
    -1.9318  -1.9295  -1.8949  -1.8820  -1.8796  -1.8697  -1.8650  -1.8499
    -1.8434  -1.8317  -1.8282  -1.8261  -1.8239  -1.8233  -1.8197  -1.7901
    -1.7890  -1.7879  -1.7465  -1.7441  -1.7087  -1.7010  -1.6637  -1.6570
    -1.6447  -1.6233  -1.6174  -1.6161  -1.6131  -1.5975  -1.5870  -1.5811
    -1.5757  -1.5746  -1.5713  -1.5704  -1.5682  -1.5670  -1.5504  -1.5464
    -1.5352  -1.5210  -1.5061  -1.5019  -1.4921  -1.4739  -1.4727  -1.4702
    -1.4696  -1.4631  -1.4466  -1.4402  -1.4317  -1.4269  -1.4172  -1.4070
    -1.3957  -1.3892  -1.3654  -1.3635  -1.3545  -1.3519  -1.3262  -1.3136
    -1.3107  -1.3063  -1.3029  -1.3015  -1.2821  -1.2761  -1.2727  -1.2684
    -1.2574  -1.2533  -1.2493  -1.2443  -1.2425  -1.2320  -1.2275  -1.2187
    -1.2123  -1.2105  -1.2068  -1.1959  -1.1940  -1.1882  -1.1681  -1.1486
    -1.1440  -1.1409  -1.1385  -1.1373  -1.1312  -1.1019  -1.0817  -1.0810
    -1.0804  -1.0790  -1.0780  -1.0714  -1.0648  -1.0571  -1.0562  -1.0214
    -1.0195  -1.0131  -1.0113  -0.9913  -0.9899  -0.9800  -0.9534  -0.9425
    -0.9192  -0.9136  -0.8887  -0.8881  -0.8839  -0.8837  -0.8808  -0.8758
    -0.8731  -0.8718  -0.8690  -0.8669  -0.8373  -0.8359  -0.8181  -0.8150
    -0.8108  -0.8098  -0.8089  -0.8057  -0.7921  -0.5214  -0.5041  -0.4473
    -0.4407  -0.4107  -0.2476  -0.1859  -0.1835  -0.1457   0.1354   0.1372
     0.4661   0.4708   0.5633   0.5639   0.6045   0.6074   0.7514   0.7523
     0.8708   0.8751   0.9722   1.5620   1.5769   1.5786   1.6153   1.6234
     1.6698   1.6832   1.7471   1.7511   1.9535   1.9565   2.1961   2.2671
     2.2752   2.2868   2.6667   2.6768   2.7394   2.7408   2.7466   2.7503
     2.8990   2.8998   2.9625   3.0455   3.0491   3.2742   3.2764   3.4074
     3.4324   3.4398   3.7069   3.7115   3.8191   3.8394   3.8419   3.9152
     3.9473   4.0234   4.0302   4.2594   4.2653   4.3547   4.3608   4.4716
     4.4783   4.4956   4.5102   4.6717   5.1861   5.3297   5.3363   5.4064
     5.4128   5.5374   5.5836   5.5915   5.6555   5.7014   5.7055   5.7124
     5.7559   5.7589   5.7631   5.8073   6.0298   6.0668   6.0810   6.0967
     6.1000   6.1031   6.1074   6.1096   6.1111   6.1591   6.1685   6.2142

          k =-0.2500 0.2500 0.2500 (167588 PWs)   bands (ev):

   -19.2646  -7.4491  -6.8611  -6.3357  -6.3339  -5.9061  -5.4964  -5.4052
    -5.4035  -5.2098  -5.2077  -5.0916  -5.0887  -5.0127  -4.9889  -4.9164
    -4.8327  -4.8275  -4.7891  -4.7882  -4.6296  -4.6125  -4.6116  -4.6090
    -4.6024  -4.5479  -4.5472  -4.5365  -4.5343  -4.4984  -4.4877  -4.4842
    -4.4447  -4.4430  -4.4109  -4.4095  -4.3609  -4.3555  -4.3476  -4.3456
    -4.3393  -4.3270  -4.3259  -4.2870  -4.2689  -4.2668  -4.2600  -4.2591
    -4.2282  -4.1798  -4.1668  -4.1627  -4.1614  -4.1573  -4.1518  -4.1469
    -4.1455  -4.1437  -4.0840  -4.0784  -4.0355  -4.0284  -4.0178  -3.9936
    -3.9920  -3.9769  -3.9680  -3.9677  -3.9652  -3.9614  -3.9146  -3.9124
    -3.9012  -3.8981  -3.7987  -3.7956  -3.7924  -3.7858  -3.7525  -3.7476
    -3.7289  -3.7083  -3.6983  -3.6725  -3.6665  -3.6565  -3.6464  -3.6394
    -3.6315  -3.6020  -3.5774  -3.5749  -3.5479  -3.5377  -3.5367  -3.5296
    -3.5292  -3.5132  -3.5024  -3.4937  -3.4666  -3.4495  -3.4449  -3.4399
    -3.4111  -3.4086  -3.3945  -3.3640  -3.3631  -3.3290  -3.3260  -3.2923
    -3.2830  -3.2810  -3.2704  -3.2686  -3.2629  -3.2603  -3.2291  -3.2141
    -3.1764  -3.1736  -3.1653  -3.1558  -3.1550  -3.1501  -3.1314  -3.1306
    -3.1105  -3.1096  -3.1068  -3.0826  -3.0817  -3.0749  -3.0719  -3.0686
    -3.0346  -3.0324  -2.9993  -2.9959  -2.9945  -2.9927  -2.9905  -2.9119
    -2.9051  -2.9031  -2.8997  -2.8963  -2.8953  -2.8921  -2.8905  -2.8895
    -2.8892  -2.8807  -2.8727  -2.8588  -2.8544  -2.8509  -2.8489  -2.8386
    -2.8341  -2.7987  -2.7946  -2.7942  -2.7914  -2.7884  -2.7729  -2.7707
    -2.7643  -2.7631  -2.7596  -2.7063  -2.7016  -2.6977  -2.6958  -2.6914
    -2.6869  -2.6634  -2.6055  -2.6047  -2.6013  -2.5990  -2.5892  -2.5866
    -2.5799  -2.5745  -2.5705  -2.5415  -2.5328  -2.5301  -2.5267  -2.5253
    -2.5223  -2.4874  -2.4854  -2.4775  -2.4765  -2.4732  -2.4706  -2.4330
    -2.4168  -2.4113  -2.3625  -2.3548  -2.3437  -2.3399  -2.3298  -2.3283
    -2.2884  -2.2793  -2.2591  -2.2519  -2.2331  -2.2279  -2.2240  -2.2073
    -2.2030  -2.1956  -2.1767  -2.1526  -2.1381  -2.1293  -2.1209  -2.1196
    -2.1158  -2.1114  -2.1097  -2.0959  -2.0931  -2.0918  -2.0878  -2.0841
    -2.0827  -2.0776  -2.0729  -2.0583  -2.0541  -2.0527  -2.0484  -2.0455
    -2.0421  -2.0246  -2.0189  -2.0088  -2.0073  -1.9998  -1.9996  -1.9634
    -1.9318  -1.9295  -1.8949  -1.8820  -1.8796  -1.8697  -1.8650  -1.8499
    -1.8434  -1.8316  -1.8282  -1.8261  -1.8239  -1.8233  -1.8197  -1.7901
    -1.7890  -1.7879  -1.7464  -1.7441  -1.7087  -1.7010  -1.6637  -1.6570
    -1.6447  -1.6233  -1.6174  -1.6161  -1.6131  -1.5975  -1.5870  -1.5811
    -1.5757  -1.5746  -1.5713  -1.5704  -1.5682  -1.5670  -1.5504  -1.5464
    -1.5352  -1.5210  -1.5061  -1.5019  -1.4921  -1.4739  -1.4727  -1.4702
    -1.4696  -1.4631  -1.4466  -1.4402  -1.4317  -1.4269  -1.4172  -1.4071
    -1.3957  -1.3892  -1.3654  -1.3635  -1.3545  -1.3519  -1.3262  -1.3136
    -1.3107  -1.3063  -1.3029  -1.3015  -1.2821  -1.2761  -1.2727  -1.2684
    -1.2574  -1.2533  -1.2493  -1.2443  -1.2425  -1.2320  -1.2275  -1.2187
    -1.2123  -1.2105  -1.2068  -1.1959  -1.1940  -1.1882  -1.1681  -1.1486
    -1.1440  -1.1409  -1.1385  -1.1373  -1.1312  -1.1019  -1.0817  -1.0810
    -1.0804  -1.0790  -1.0780  -1.0714  -1.0647  -1.0571  -1.0562  -1.0214
    -1.0195  -1.0131  -1.0113  -0.9913  -0.9899  -0.9800  -0.9534  -0.9425
    -0.9192  -0.9136  -0.8887  -0.8881  -0.8839  -0.8837  -0.8808  -0.8758
    -0.8730  -0.8718  -0.8690  -0.8669  -0.8373  -0.8359  -0.8181  -0.8150
    -0.8108  -0.8098  -0.8089  -0.8057  -0.7921  -0.5214  -0.5041  -0.4473
    -0.4407  -0.4107  -0.2476  -0.1859  -0.1835  -0.1457   0.1354   0.1372
     0.4661   0.4708   0.5633   0.5639   0.6045   0.6075   0.7514   0.7524
     0.8708   0.8751   0.9722   1.5620   1.5769   1.5786   1.6153   1.6234
     1.6698   1.6832   1.7471   1.7511   1.9535   1.9565   2.1961   2.2671
     2.2752   2.2868   2.6667   2.6768   2.7394   2.7408   2.7466   2.7503
     2.8990   2.8998   2.9625   3.0455   3.0491   3.2742   3.2764   3.4074
     3.4324   3.4398   3.7069   3.7115   3.8190   3.8395   3.8419   3.9153
     3.9473   4.0234   4.0302   4.2594   4.2653   4.3547   4.3608   4.4716
     4.4783   4.4956   4.5102   4.6718   5.1773   5.3238   5.3342   5.4061
     5.4123   5.5423   5.5837   5.5915   5.6625   5.7035   5.7092   5.7416
     5.7547   5.7587   5.7629   5.8073   6.0491   6.0692   6.0808   6.0912
     6.0984   6.1052   6.1072   6.1109   6.1210   6.1371   6.1960   6.2322

     the Fermi energy is     0.8249 ev

!    total energy              =   -7425.26887504 Ry
     Harris-Foulkes estimate   =   -7425.26887504 Ry
     estimated scf accuracy    <          4.5E-09 Ry

     The total energy is the sum of the following terms:

     one-electron contribution =  -48810.95129605 Ry
     hartree contribution      =   24955.11206366 Ry
     xc contribution           =   -3604.28111943 Ry
     ewald contribution        =   20034.85394305 Ry
     smearing contrib. (-TS)   =      -0.00246628 Ry

     convergence has been achieved in  29 iterations

     Writing output data file 9462324.save

     init_run     :    136.75s CPU    142.61s WALL (       1 calls)
     electrons    :   8774.87s CPU   9161.20s WALL (       1 calls)

     Called by init_run:
     wfcinit      :    102.58s CPU    107.68s WALL (       1 calls)
     potinit      :      7.02s CPU      7.38s WALL (       1 calls)

     Called by electrons:
     c_bands      :   7298.88s CPU   7607.62s WALL (      30 calls)
     sum_band     :    994.92s CPU   1056.96s WALL (      30 calls)
     v_of_rho     :    102.96s CPU    113.31s WALL (      30 calls)
     newd         :    386.28s CPU    390.73s WALL (      30 calls)
     mix_rho      :      3.32s CPU      3.75s WALL (      30 calls)
     vdW_energy   :     10.38s CPU     10.92s WALL (      30 calls)
     vdW_ffts     :     48.09s CPU     53.31s WALL (      60 calls)
     vdW_v        :     13.71s CPU     14.60s WALL (      30 calls)

     Called by c_bands:
     init_us_2    :     10.46s CPU     10.85s WALL (     366 calls)
     cegterg      :   7167.50s CPU   7474.97s WALL (     180 calls)

     Called by *egterg:
     h_psi        :   2943.18s CPU   3218.85s WALL (     883 calls)
     s_psi        :    559.22s CPU    561.71s WALL (     883 calls)
     g_psi        :      5.92s CPU      5.95s WALL (     697 calls)
     cdiaghg      :   2007.54s CPU   2013.27s WALL (     871 calls)

     Called by h_psi:
     add_vuspsi   :    567.29s CPU    569.94s WALL (     883 calls)

     General routines
     calbec       :    810.58s CPU    813.28s WALL (    1063 calls)
     fft          :    113.44s CPU    123.67s WALL (    1980 calls)
     ffts         :      1.40s CPU      1.63s WALL (      60 calls)
     fftw         :   2034.60s CPU   2340.51s WALL (  486582 calls)
     interpolate  :      3.84s CPU      4.49s WALL (      60 calls)
     davcio       :      0.00s CPU      0.10s WALL (       6 calls)

     Parallel routines
     fft_scatter  :   1365.92s CPU   1587.09s WALL (  488622 calls)

     PWSCF        :     2h29m CPU        2h35m WALL


   This run was terminated on:  19:42:16  29Jun2015            

=------------------------------------------------------------------------------=
   JOB DONE.
=------------------------------------------------------------------------------=
