Setting SGE environment for SCC

     Program PWSCF v.5.1.2 starts on 23Jun2015 at 16: 5:43 

     This program is part of the open-source Quantum ESPRESSO suite
     for quantum simulation of materials; please cite
         "P. Giannozzi et al., J. Phys.:Condens. Matter 21 395502 (2009);
          URL http://www.quantum-espresso.org", 
     in publications or presentations arising from this work. More details at
     http://www.quantum-espresso.org/quote

     Parallel version (MPI), running on    32 processors
     R & G space division:  proc/nbgrp/npool/nimage =      32
     Reading input from top.O1.Au62.d.3.4.phi.0.psi.0.in
Warning: card &IONS ignored
Warning: card / ignored
Warning: card &CELL ignored
Warning: card / ignored

     Current dimensions of program PWSCF are:
     Max number of different atomic species (ntypx) = 10
     Max number of k-points (npk) =  40000
     Max angular momentum in pseudopotentials (lmaxx) =  3

     IMPORTANT: XC functional enforced from input :
     Exchange-correlation      = VDW-DF ( 1  4  4  0 1 0)
     Any further DFT definition will be discarded
     Please, verify this is what you really want


     Subspace diagonalization in iterative solution of the eigenvalue problem:
     a serial algorithm will be used


     Parallelization info
     --------------------
     sticks:   dense  smooth     PW     G-vecs:    dense   smooth      PW
     Min         578     289     74               118518    41891    5486
     Max         579     290     75               118533    41932    5497
     Sum       18505    9265   2385              3792731  1341081  175711


     Title: 
     top.O1.Au62.d.3.4.phi.0.psi.0                                              


     bravais-lattice index     =            8
     lattice parameter (alat)  =      24.1233  a.u.
     unit-cell volume          =   28076.2361 (a.u.)^3
     number of atoms/cell      =           75
     number of atomic types    =            3
     number of electrons       =       800.00
     number of Kohn-Sham states=          480
     kinetic-energy cutoff     =      50.0000  Ry
     charge density cutoff     =     400.0000  Ry
     convergence threshold     =      1.0E-08
     mixing beta               =       0.7000
     number of iterations used =            8  plain     mixing
     Exchange-correlation      = VDW-DF ( 1  4  4  0 1 0)

     celldm(1)=  24.123277  celldm(2)=   1.000000  celldm(3)=   2.000000
     celldm(4)=   0.000000  celldm(5)=   0.000000  celldm(6)=   0.000000

     crystal axes: (cart. coord. in units of alat)
               a(1) = (   1.000000   0.000000   0.000000 )  
               a(2) = (   0.000000   1.000000   0.000000 )  
               a(3) = (   0.000000   0.000000   2.000000 )  

     reciprocal axes: (cart. coord. in units 2 pi/alat)
               b(1) = (  1.000000  0.000000  0.000000 )  
               b(2) = (  0.000000  1.000000  0.000000 )  
               b(3) = (  0.000000  0.000000  0.500000 )  


     PseudoPot. # 1 for Au read from file:
     /home/scc/andrejb/qe/pseudo/Au.pbe-nd-van.UPF
     MD5 check sum: 458681b50f36d87ef23c61b04bba420a
     Pseudo is Ultrasoft + core correction, Zval = 11.0
     Generated by new atomic code, or converted to UPF format
     Using radial grid of  985 points,  3 beta functions with: 
                l(1) =   1
                l(2) =   2
                l(3) =   2
     Q(r) pseudized with  8 coefficients,  rinner =    1.100   1.100   1.100
                                                       1.100   1.100

     PseudoPot. # 2 for H  read from file:
     /home/scc/andrejb/qe/pseudo/H.pbe-van_ak.UPF
     MD5 check sum: 403db7282739603aa925980fa9b8608d
     Pseudo is Ultrasoft, Zval =  1.0
     Generated by new atomic code, or converted to UPF format
     Using radial grid of  615 points,  1 beta functions with: 
                l(1) =   0
     Q(r) pseudized with  8 coefficients,  rinner =    0.800

     PseudoPot. # 3 for O  read from file:
     /home/scc/andrejb/qe/pseudo/O.pbe-van_ak.UPF
     MD5 check sum: 4b8c549914a63cae506c6ff22b5af4fe
     Pseudo is Ultrasoft, Zval =  6.0
     Generated by new atomic code, or converted to UPF format
     Using radial grid of  737 points,  4 beta functions with: 
                l(1) =   0
                l(2) =   0
                l(3) =   1
                l(4) =   1
     Q(r) pseudized with  8 coefficients,  rinner =    0.800   0.800   0.800


     vdW kernel table read from file vdW_kernel_table
     MD5 check sum: 48e77a2e26edf626eeb0eaa751ad5cac

     atomic species   valence    mass     pseudopotential
        Au            11.00   196.96657     Au( 1.00)
        H              1.00     1.01000     H ( 1.00)
        O              6.00    16.00000     O ( 1.00)

     No symmetry found



   Cartesian axes

     site n.     atom                  positions (alat units)
         1           O   tau(   1) = (   0.4998324   0.3332216   0.7656616  )
         2           H   tau(   2) = (   0.4527548   0.2940501   0.8111555  )
         3           H   tau(   3) = (   0.5454827   0.3712232   0.8135193  )
         4           Au  tau(   4) = (   0.0000000   0.0000000   0.0000000  )
         5           Au  tau(   5) = (   0.3332217   0.0000000   0.0000000  )
         6           Au  tau(   6) = (   0.6664435   0.0000000   0.0000000  )
         7           Au  tau(   7) = (   0.1666109   0.1666109   0.0000000  )
         8           Au  tau(   8) = (   0.4998326   0.1666109   0.0000000  )
         9           Au  tau(   9) = (   0.8330542   0.1666109   0.0000000  )
        10           Au  tau(  10) = (   0.0000000   0.3332217   0.0000000  )
        11           Au  tau(  11) = (   0.3332217   0.3332217   0.0000000  )
        12           Au  tau(  12) = (   0.6664435   0.3332217   0.0000000  )
        13           Au  tau(  13) = (   0.1666109   0.4998326   0.0000000  )
        14           Au  tau(  14) = (   0.4998326   0.4998326   0.0000000  )
        15           Au  tau(  15) = (   0.8330542   0.4998326   0.0000000  )
        16           Au  tau(  16) = (   0.0000000   0.6664435   0.0000000  )
        17           Au  tau(  17) = (   0.3332217   0.6664435   0.0000000  )
        18           Au  tau(  18) = (   0.6664435   0.6664435   0.0000000  )
        19           Au  tau(  19) = (   0.1666109   0.8330542   0.0000000  )
        20           Au  tau(  20) = (   0.4998326   0.8330542   0.0000000  )
        21           Au  tau(  21) = (   0.8330542   0.8330542   0.0000000  )
        22           Au  tau(  22) = (   0.1666109   0.0000000   0.1666109  )
        23           Au  tau(  23) = (   0.4998326   0.0000000   0.1666109  )
        24           Au  tau(  24) = (   0.8330542   0.0000000   0.1666109  )
        25           Au  tau(  25) = (   0.0000000   0.1666109   0.1666109  )
        26           Au  tau(  26) = (   0.3332217   0.1666109   0.1666109  )
        27           Au  tau(  27) = (   0.6664435   0.1666109   0.1666109  )
        28           Au  tau(  28) = (   0.1666109   0.3332217   0.1666109  )
        29           Au  tau(  29) = (   0.4998326   0.3332217   0.1666109  )
        30           Au  tau(  30) = (   0.8330542   0.3332217   0.1666109  )
        31           Au  tau(  31) = (   0.0000000   0.4998326   0.1666109  )
        32           Au  tau(  32) = (   0.3332217   0.4998326   0.1666109  )
        33           Au  tau(  33) = (   0.6664435   0.4998326   0.1666109  )
        34           Au  tau(  34) = (   0.1666109   0.6664435   0.1666109  )
        35           Au  tau(  35) = (   0.4998326   0.6664435   0.1666109  )
        36           Au  tau(  36) = (   0.8330542   0.6664435   0.1666109  )
        37           Au  tau(  37) = (   0.0000000   0.8330542   0.1666109  )
        38           Au  tau(  38) = (   0.3332217   0.8330542   0.1666109  )
        39           Au  tau(  39) = (   0.6664435   0.8330542   0.1666109  )
        40           Au  tau(  40) = (  -0.0000182  -0.0000182   0.3335478  )
        41           Au  tau(  41) = (   0.3332215  -0.0000181   0.3335472  )
        42           Au  tau(  42) = (   0.6664447  -0.0000183   0.3335481  )
        43           Au  tau(  43) = (  -0.0000181   0.3332215   0.3335472  )
        44           Au  tau(  44) = (   0.3332215   0.3332215   0.3335468  )
        45           Au  tau(  45) = (   0.6664445   0.3332215   0.3335478  )
        46           Au  tau(  46) = (  -0.0000183   0.6664447   0.3335481  )
        47           Au  tau(  47) = (   0.3332215   0.6664445   0.3335478  )
        48           Au  tau(  48) = (   0.6664446   0.6664446   0.3335486  )
        49           Au  tau(  49) = (   0.1666097   0.1666097   0.3335483  )
        50           Au  tau(  50) = (   0.4998320   0.1666098   0.3335477  )
        51           Au  tau(  51) = (   0.8330732   0.1666096   0.3335481  )
        52           Au  tau(  52) = (   0.1666098   0.4998320   0.3335477  )
        53           Au  tau(  53) = (   0.4998321   0.4998321   0.3335470  )
        54           Au  tau(  54) = (   0.8330730   0.4998322   0.3335474  )
        55           Au  tau(  55) = (   0.1666096   0.8330732   0.3335481  )
        56           Au  tau(  56) = (   0.4998322   0.8330730   0.3335474  )
        57           Au  tau(  57) = (   0.8330731   0.8330731   0.3335478  )
        58           Au  tau(  58) = (   0.1666104  -0.0000111   0.4993095  )
        59           Au  tau(  59) = (   0.4998323  -0.0000112   0.4993099  )
        60           Au  tau(  60) = (   0.8330661  -0.0000111   0.4993009  )
        61           Au  tau(  61) = (  -0.0000111   0.1666104   0.4993095  )
        62           Au  tau(  62) = (   0.3332214   0.1666106   0.4993185  )
        63           Au  tau(  63) = (   0.6664437   0.1666106   0.4993187  )
        64           Au  tau(  64) = (   0.1666106   0.3332214   0.4993185  )
        65           Au  tau(  65) = (   0.4998324   0.3332216   0.4993185  )
        66           Au  tau(  66) = (   0.8330659   0.3332215   0.4993103  )
        67           Au  tau(  67) = (  -0.0000112   0.4998323   0.4993099  )
        68           Au  tau(  68) = (   0.3332216   0.4998324   0.4993185  )
        69           Au  tau(  69) = (   0.6664436   0.4998325   0.4993187  )
        70           Au  tau(  70) = (   0.1666106   0.6664437   0.4993187  )
        71           Au  tau(  71) = (   0.4998325   0.6664436   0.4993187  )
        72           Au  tau(  72) = (   0.8330658   0.6664438   0.4993102  )
        73           Au  tau(  73) = (  -0.0000111   0.8330661   0.4993009  )
        74           Au  tau(  74) = (   0.3332215   0.8330659   0.4993103  )
        75           Au  tau(  75) = (   0.6664438   0.8330658   0.4993102  )

     number of k points=     6  Marzari-Vanderbilt smearing, width (Ry)=  0.0200
                       cart. coord. in units 2pi/alat
        k(    1) = (   0.2500000   0.2500000   0.0833333), wk =   0.3333333
        k(    2) = (   0.2500000   0.2500000  -0.2500000), wk =   0.3333333
        k(    3) = (  -0.2500000  -0.2500000   0.0833333), wk =   0.3333333
        k(    4) = (  -0.2500000   0.2500000  -0.0833333), wk =   0.3333333
        k(    5) = (   0.2500000  -0.2500000  -0.0833333), wk =   0.3333333
        k(    6) = (  -0.2500000   0.2500000   0.2500000), wk =   0.3333333

     Dense  grid:  3792731 G-vectors     FFT dimensions: ( 160, 160, 320)

     Smooth grid:  1341081 G-vectors     FFT dimensions: ( 120, 120, 225)

     Largest allocated arrays     est. size (Mb)     dimensions
        Kohn-Sham Wavefunctions        38.58 Mb     (    5267,  480)
        NL pseudopotentials            76.03 Mb     (    5267,  946)
        Each V/rho on FFT grid          3.91 Mb     (  256000)
        Each G-vector array             0.90 Mb     (  118520)
        G-vector shells                 0.08 Mb     (   10286)
     Largest temporary arrays     est. size (Mb)     dimensions
        Auxiliary wavefunctions       154.31 Mb     (    5267, 1920)
        Each subspace H/S matrix       56.25 Mb     (    1920, 1920)
        Each <psi_i|beta_j> matrix      6.93 Mb     (     946,  480)
        Arrays for rho mixing          31.25 Mb     (  256000,    8)

     Initial potential from superposition of free atoms
     Check: negative starting charge=   -1.944979

     starting charge  799.16392, renormalised to  800.00000

     negative rho (up, down):  1.947E+00 0.000E+00


     ************************************************************************
     *
     * You are using vdW-DF for exchange-correlation in this calculation.
     * Please cite the following three references that made this development
     * possible:
     *
     *   M. Dion, H. Rydberg, E. Schroder, D. C. Langreth, and
     *   B. I. Lundqvist, Phys. Rev. Lett. 92, 246401 (2004).
     *
     *   T. Thonhauser, V. R. Cooper, S. Li, A. Puzder, P. Hyldgaard, and
     *   D. C. Langreth, Phys. Rev. B 76, 125112 (2007).
     *
     *   G. Roman-Perez and J. M. Soler, Phys. Rev. Lett. 103, 096102 (2009).
     *
     *
     * If you are using vdW-DF2, please also cite:
     *
     *   K. Lee, E. D. Murray, L. Kong, B. I. Lundqvist, and
     *   D. C. Langreth, Phys. Rev. B 82, 081101(R) (2010).
     *
     *
     * If you are calculating the stress with vdW-DF, please also cite:
     *
     *   R. Sabatini, E. Kucukbenli, B. Kolb, T. Thonhauser, and
     *   S. de Gironcoli, J. Phys.: Condens. Matter 24, 424209 (2012).
     *
     ************************************************************************

     Carrying out vdW-DF run using the following parameters:

     Nqs =      20    Nr_points =    1024   r_max =   100.000
     q_mesh =
               0.00001000     0.04494208     0.09755937     0.15916263
               0.23128650     0.31572767     0.41458969     0.53033537
               0.66584808     0.82450364     1.01025438     1.22772762
               1.48234092     1.78043706     2.12944203     2.53805004
               3.01644009     3.57652955     4.23227104     5.00000000

     Gradients computed in reciprocal space

     ************************************************************************


     Starting wfc are  654 randomized atomic wfcs

     total cpu time spent up to now is      110.1 secs

     Self-consistent Calculation

     iteration #  1     ecut=    50.00 Ry     beta=0.70
     Davidson diagonalization with overlap
     ethr =  1.00E-02,  avg # of iterations =  3.0

     Threshold (ethr) on eigenvalues was too large:
     Diagonalizing with lowered threshold

     Davidson diagonalization with overlap
     ethr =  4.29E-04,  avg # of iterations =  2.5

     negative rho (up, down):  1.947E+00 0.000E+00

     total cpu time spent up to now is      510.1 secs

     total energy              =   -7423.00439588 Ry
     Harris-Foulkes estimate   =   -7426.09292673 Ry
     estimated scf accuracy    <       3.81042352 Ry

     iteration #  2     ecut=    50.00 Ry     beta=0.70
     Davidson diagonalization with overlap
     ethr =  4.76E-04,  avg # of iterations = 11.3

     negative rho (up, down):  1.941E+00 0.000E+00

     total cpu time spent up to now is     1306.9 secs

     total energy              =   -7414.60183297 Ry
     Harris-Foulkes estimate   =   -7432.76985609 Ry
     estimated scf accuracy    <      96.04296208 Ry

     iteration #  3     ecut=    50.00 Ry     beta=0.70
     Davidson diagonalization with overlap
     ethr =  4.76E-04,  avg # of iterations =  6.0

     negative rho (up, down):  1.951E+00 0.000E+00

     total cpu time spent up to now is     1785.9 secs

     total energy              =   -7424.06788651 Ry
     Harris-Foulkes estimate   =   -7425.88557565 Ry
     estimated scf accuracy    <       7.76486684 Ry

     iteration #  4     ecut=    50.00 Ry     beta=0.70
     Davidson diagonalization with overlap
     ethr =  4.76E-04,  avg # of iterations =  5.5

     negative rho (up, down):  1.955E+00 0.000E+00

     total cpu time spent up to now is     2027.3 secs

     total energy              =   -7424.85959368 Ry
     Harris-Foulkes estimate   =   -7425.64013431 Ry
     estimated scf accuracy    <       4.03353654 Ry

     iteration #  5     ecut=    50.00 Ry     beta=0.70
     Davidson diagonalization with overlap
     ethr =  4.76E-04,  avg # of iterations =  5.7

     negative rho (up, down):  1.962E+00 0.000E+00

     total cpu time spent up to now is     2274.7 secs

     total energy              =   -7425.05486096 Ry
     Harris-Foulkes estimate   =   -7425.60377907 Ry
     estimated scf accuracy    <       4.36830477 Ry

     iteration #  6     ecut=    50.00 Ry     beta=0.70
     Davidson diagonalization with overlap
     ethr =  4.76E-04,  avg # of iterations =  2.0

     negative rho (up, down):  1.967E+00 0.000E+00

     total cpu time spent up to now is     2460.4 secs

     total energy              =   -7425.28616126 Ry
     Harris-Foulkes estimate   =   -7425.33059316 Ry
     estimated scf accuracy    <       0.14775577 Ry

     iteration #  7     ecut=    50.00 Ry     beta=0.70
     Davidson diagonalization with overlap
     ethr =  1.85E-05,  avg # of iterations =  8.2

     negative rho (up, down):  1.969E+00 0.000E+00

     total cpu time spent up to now is     2767.6 secs

     total energy              =   -7425.28652350 Ry
     Harris-Foulkes estimate   =   -7425.32378532 Ry
     estimated scf accuracy    <       0.17019167 Ry

     iteration #  8     ecut=    50.00 Ry     beta=0.70
     Davidson diagonalization with overlap
     ethr =  1.85E-05,  avg # of iterations =  3.5

     negative rho (up, down):  1.970E+00 0.000E+00

     total cpu time spent up to now is     2979.1 secs

     total energy              =   -7425.29089356 Ry
     Harris-Foulkes estimate   =   -7425.31020362 Ry
     estimated scf accuracy    <       0.08383056 Ry

     iteration #  9     ecut=    50.00 Ry     beta=0.70
     Davidson diagonalization with overlap
     ethr =  1.05E-05,  avg # of iterations =  5.5

     negative rho (up, down):  1.972E+00 0.000E+00

     total cpu time spent up to now is     3229.9 secs

     total energy              =   -7425.29222920 Ry
     Harris-Foulkes estimate   =   -7425.30423354 Ry
     estimated scf accuracy    <       0.04715317 Ry

     iteration # 10     ecut=    50.00 Ry     beta=0.70
     Davidson diagonalization with overlap
     ethr =  5.89E-06,  avg # of iterations =  6.5

     negative rho (up, down):  1.972E+00 0.000E+00

     total cpu time spent up to now is     3475.4 secs

     total energy              =   -7425.29460081 Ry
     Harris-Foulkes estimate   =   -7425.29779472 Ry
     estimated scf accuracy    <       0.00969195 Ry

     iteration # 11     ecut=    50.00 Ry     beta=0.70
     Davidson diagonalization with overlap
     ethr =  1.21E-06,  avg # of iterations = 10.8

     negative rho (up, down):  1.974E+00 0.000E+00

     total cpu time spent up to now is     3774.0 secs

     total energy              =   -7425.29498932 Ry
     Harris-Foulkes estimate   =   -7425.29622443 Ry
     estimated scf accuracy    <       0.00449517 Ry

     iteration # 12     ecut=    50.00 Ry     beta=0.70
     Davidson diagonalization with overlap
     ethr =  5.62E-07,  avg # of iterations =  4.0

     negative rho (up, down):  1.975E+00 0.000E+00

     total cpu time spent up to now is     3998.3 secs

     total energy              =   -7425.29431074 Ry
     Harris-Foulkes estimate   =   -7425.29543711 Ry
     estimated scf accuracy    <       0.00157158 Ry

     iteration # 13     ecut=    50.00 Ry     beta=0.70
     Davidson diagonalization with overlap
     ethr =  1.96E-07,  avg # of iterations =  9.2

     negative rho (up, down):  1.974E+00 0.000E+00

     total cpu time spent up to now is     4433.0 secs

     total energy              =   -7425.29382546 Ry
     Harris-Foulkes estimate   =   -7425.29579619 Ry
     estimated scf accuracy    <       0.00801357 Ry

     iteration # 14     ecut=    50.00 Ry     beta=0.70
     Davidson diagonalization with overlap
     ethr =  1.96E-07,  avg # of iterations =  3.0

     negative rho (up, down):  1.974E+00 0.000E+00

     total cpu time spent up to now is     4703.6 secs

     total energy              =   -7425.29464239 Ry
     Harris-Foulkes estimate   =   -7425.29492086 Ry
     estimated scf accuracy    <       0.00114917 Ry

     iteration # 15     ecut=    50.00 Ry     beta=0.70
     Davidson diagonalization with overlap
     ethr =  1.44E-07,  avg # of iterations =  2.0

     negative rho (up, down):  1.974E+00 0.000E+00

     total cpu time spent up to now is     4890.0 secs

     total energy              =   -7425.29469216 Ry
     Harris-Foulkes estimate   =   -7425.29489762 Ry
     estimated scf accuracy    <       0.00108471 Ry

     iteration # 16     ecut=    50.00 Ry     beta=0.70
     Davidson diagonalization with overlap
     ethr =  1.36E-07,  avg # of iterations =  1.0

     negative rho (up, down):  1.974E+00 0.000E+00

     total cpu time spent up to now is     5074.4 secs

     total energy              =   -7425.29473911 Ry
     Harris-Foulkes estimate   =   -7425.29489873 Ry
     estimated scf accuracy    <       0.00131770 Ry

     iteration # 17     ecut=    50.00 Ry     beta=0.70
     Davidson diagonalization with overlap
     ethr =  1.36E-07,  avg # of iterations =  1.0

     negative rho (up, down):  1.974E+00 0.000E+00

     total cpu time spent up to now is     5280.7 secs

     total energy              =   -7425.29481234 Ry
     Harris-Foulkes estimate   =   -7425.29483093 Ry
     estimated scf accuracy    <       0.00005610 Ry

     iteration # 18     ecut=    50.00 Ry     beta=0.70
     Davidson diagonalization with overlap
     ethr =  7.01E-09,  avg # of iterations =  2.0

     negative rho (up, down):  1.974E+00 0.000E+00

     total cpu time spent up to now is     5508.3 secs

     total energy              =   -7425.29482029 Ry
     Harris-Foulkes estimate   =   -7425.29482526 Ry
     estimated scf accuracy    <       0.00001801 Ry

     iteration # 19     ecut=    50.00 Ry     beta=0.70
     Davidson diagonalization with overlap
     ethr =  2.25E-09,  avg # of iterations =  3.0

     negative rho (up, down):  1.974E+00 0.000E+00

     total cpu time spent up to now is     5743.6 secs

     total energy              =   -7425.29482102 Ry
     Harris-Foulkes estimate   =   -7425.29482569 Ry
     estimated scf accuracy    <       0.00002395 Ry

     iteration # 20     ecut=    50.00 Ry     beta=0.70
     Davidson diagonalization with overlap
     ethr =  2.25E-09,  avg # of iterations =  2.0

     negative rho (up, down):  1.974E+00 0.000E+00

     total cpu time spent up to now is     5951.8 secs

     total energy              =   -7425.29482304 Ry
     Harris-Foulkes estimate   =   -7425.29482435 Ry
     estimated scf accuracy    <       0.00000521 Ry

     iteration # 21     ecut=    50.00 Ry     beta=0.70
     Davidson diagonalization with overlap
     ethr =  6.51E-10,  avg # of iterations =  2.0

     negative rho (up, down):  1.974E+00 0.000E+00

     total cpu time spent up to now is     6161.9 secs

     total energy              =   -7425.29482384 Ry
     Harris-Foulkes estimate   =   -7425.29482409 Ry
     estimated scf accuracy    <       0.00000157 Ry

     iteration # 22     ecut=    50.00 Ry     beta=0.70
     Davidson diagonalization with overlap
     ethr =  1.97E-10,  avg # of iterations =  3.0

     negative rho (up, down):  1.974E+00 0.000E+00

     total cpu time spent up to now is     6402.7 secs

     total energy              =   -7425.29482411 Ry
     Harris-Foulkes estimate   =   -7425.29482419 Ry
     estimated scf accuracy    <       0.00000053 Ry

     iteration # 23     ecut=    50.00 Ry     beta=0.70
     Davidson diagonalization with overlap
     ethr =  6.65E-11,  avg # of iterations =  3.0

     negative rho (up, down):  1.974E+00 0.000E+00

     total cpu time spent up to now is     6645.6 secs

     total energy              =   -7425.29482418 Ry
     Harris-Foulkes estimate   =   -7425.29482422 Ry
     estimated scf accuracy    <       0.00000014 Ry

     iteration # 24     ecut=    50.00 Ry     beta=0.70
     Davidson diagonalization with overlap
     ethr =  1.73E-11,  avg # of iterations =  2.0

     negative rho (up, down):  1.974E+00 0.000E+00

     total cpu time spent up to now is     6900.6 secs

     total energy              =   -7425.29482424 Ry
     Harris-Foulkes estimate   =   -7425.29482423 Ry
     estimated scf accuracy    <       0.00000017 Ry

     iteration # 25     ecut=    50.00 Ry     beta=0.70
     Davidson diagonalization with overlap
     ethr =  1.73E-11,  avg # of iterations =  2.0

     negative rho (up, down):  1.974E+00 0.000E+00

     total cpu time spent up to now is     7117.7 secs

     total energy              =   -7425.29482426 Ry
     Harris-Foulkes estimate   =   -7425.29482426 Ry
     estimated scf accuracy    <       0.00000008 Ry

     iteration # 26     ecut=    50.00 Ry     beta=0.70
     Davidson diagonalization with overlap
     ethr =  9.96E-12,  avg # of iterations =  2.0

     negative rho (up, down):  1.974E+00 0.000E+00

     total cpu time spent up to now is     7324.6 secs

     total energy              =   -7425.29482428 Ry
     Harris-Foulkes estimate   =   -7425.29482428 Ry
     estimated scf accuracy    <       0.00000016 Ry

     iteration # 27     ecut=    50.00 Ry     beta=0.70
     Davidson diagonalization with overlap
     ethr =  9.96E-12,  avg # of iterations =  1.0

     negative rho (up, down):  1.974E+00 0.000E+00

     total cpu time spent up to now is     7538.5 secs

     total energy              =   -7425.29482429 Ry
     Harris-Foulkes estimate   =   -7425.29482429 Ry
     estimated scf accuracy    <       0.00000003 Ry

     iteration # 28     ecut=    50.00 Ry     beta=0.70
     Davidson diagonalization with overlap
     ethr =  3.55E-12,  avg # of iterations =  3.0

     negative rho (up, down):  1.974E+00 0.000E+00

     total cpu time spent up to now is     7759.7 secs

     total energy              =   -7425.29482430 Ry
     Harris-Foulkes estimate   =   -7425.29482429 Ry
     estimated scf accuracy    <       0.00000001 Ry

     iteration # 29     ecut=    50.00 Ry     beta=0.70
     Davidson diagonalization with overlap
     ethr =  1.53E-12,  avg # of iterations =  2.0

     negative rho (up, down):  1.974E+00 0.000E+00

     total cpu time spent up to now is     7971.3 secs

     End of self-consistent calculation

          k = 0.2500 0.2500 0.0833 (167653 PWs)   bands (ev):

   -19.6121  -7.4209  -6.7290  -6.2008  -6.1998  -5.7708  -5.3622  -5.2689
    -5.2680  -5.0724  -5.0724  -4.9553  -4.9546  -4.8760  -4.8533  -4.7801
    -4.6949  -4.6915  -4.6526  -4.6525  -4.4916  -4.4746  -4.4740  -4.4731
    -4.4669  -4.4109  -4.4109  -4.3993  -4.3985  -4.3619  -4.3498  -4.3494
    -4.3072  -4.3072  -4.2736  -4.2724  -4.2209  -4.2201  -4.2102  -4.2082
    -4.2032  -4.1900  -4.1899  -4.1487  -4.1306  -4.1301  -4.1237  -4.1232
    -4.0920  -4.0423  -4.0266  -4.0258  -4.0239  -4.0225  -4.0146  -4.0090
    -4.0085  -4.0084  -3.9443  -3.9440  -3.8949  -3.8938  -3.8815  -3.8556
    -3.8549  -3.8376  -3.8327  -3.8321  -3.8279  -3.8246  -3.7770  -3.7756
    -3.7628  -3.7621  -3.7261  -3.6577  -3.6542  -3.6515  -3.6464  -3.6129
    -3.6037  -3.5908  -3.5603  -3.5592  -3.5320  -3.5302  -3.5100  -3.5091
    -3.4965  -3.4955  -3.4413  -3.4407  -3.4221  -3.4075  -3.3954  -3.3943
    -3.3939  -3.3927  -3.3657  -3.3653  -3.3291  -3.3282  -3.3065  -3.3061
    -3.2737  -3.2735  -3.2550  -3.2275  -3.2275  -3.1903  -3.1899  -3.1544
    -3.1471  -3.1462  -3.1327  -3.1319  -3.1273  -3.1267  -3.0880  -3.0791
    -3.0376  -3.0375  -3.0297  -3.0204  -3.0194  -3.0173  -2.9938  -2.9936
    -2.9726  -2.9723  -2.9712  -2.9448  -2.9448  -2.9373  -2.9345  -2.9342
    -2.8988  -2.8938  -2.8590  -2.8581  -2.8578  -2.8548  -2.8547  -2.7755
    -2.7655  -2.7616  -2.7605  -2.7598  -2.7592  -2.7545  -2.7544  -2.7543
    -2.7533  -2.7444  -2.7366  -2.7197  -2.7169  -2.7168  -2.7149  -2.7015
    -2.6968  -2.6585  -2.6578  -2.6577  -2.6541  -2.6527  -2.6354  -2.6347
    -2.6261  -2.6261  -2.6238  -2.5645  -2.5643  -2.5589  -2.5588  -2.5541
    -2.5534  -2.5255  -2.4662  -2.4653  -2.4648  -2.4632  -2.4516  -2.4499
    -2.4444  -2.4338  -2.4334  -2.3972  -2.3960  -2.3881  -2.3872  -2.3868
    -2.3863  -2.3474  -2.3466  -2.3372  -2.3370  -2.3356  -2.3351  -2.2931
    -2.2766  -2.2722  -2.2186  -2.2181  -2.2000  -2.1986  -2.1932  -2.1925
    -2.1448  -2.1434  -2.1204  -2.1044  -2.0903  -2.0892  -2.0889  -2.0672
    -2.0668  -2.0572  -2.0402  -1.9996  -1.9985  -1.9862  -1.9861  -1.9855
    -1.9742  -1.9741  -1.9589  -1.9586  -1.9563  -1.9539  -1.9503  -1.9494
    -1.9477  -1.9366  -1.9360  -1.9187  -1.9182  -1.9162  -1.9104  -1.9071
    -1.9066  -1.8833  -1.8827  -1.8715  -1.8697  -1.8659  -1.8635  -1.8260
    -1.7931  -1.7916  -1.7569  -1.7402  -1.7394  -1.7321  -1.7289  -1.7068
    -1.7048  -1.6981  -1.6905  -1.6895  -1.6884  -1.6872  -1.6855  -1.6532
    -1.6526  -1.6519  -1.6179  -1.6063  -1.6057  -1.5665  -1.5650  -1.5190
    -1.5188  -1.5064  -1.4841  -1.4784  -1.4770  -1.4597  -1.4579  -1.4413
    -1.4404  -1.4363  -1.4360  -1.4343  -1.4336  -1.4320  -1.4294  -1.4107
    -1.4098  -1.3989  -1.3827  -1.3636  -1.3631  -1.3376  -1.3374  -1.3346
    -1.3339  -1.3312  -1.3269  -1.3059  -1.3056  -1.2914  -1.2889  -1.2772
    -1.2680  -1.2546  -1.2533  -1.2235  -1.2228  -1.2150  -1.2142  -1.1798
    -1.1788  -1.1713  -1.1701  -1.1624  -1.1613  -1.1407  -1.1401  -1.1285
    -1.1219  -1.1213  -1.1090  -1.1084  -1.1074  -1.1057  -1.0932  -1.0828
    -1.0819  -1.0747  -1.0744  -1.0624  -1.0577  -1.0564  -1.0510  -1.0119
    -1.0096  -1.0035  -1.0028  -1.0024  -0.9999  -0.9624  -0.9463  -0.9452
    -0.9450  -0.9439  -0.9395  -0.9388  -0.9350  -0.9208  -0.9205  -0.8838
    -0.8820  -0.8761  -0.8758  -0.8532  -0.8528  -0.8432  -0.8134  -0.8057
    -0.7787  -0.7779  -0.7504  -0.7500  -0.7470  -0.7462  -0.7455  -0.7417
    -0.7376  -0.7361  -0.7317  -0.7313  -0.6996  -0.6990  -0.6820  -0.6796
    -0.6759  -0.6758  -0.6740  -0.6710  -0.6551  -0.3773  -0.3706  -0.3152
    -0.3082  -0.2736  -0.1133  -0.0482  -0.0473  -0.0154   0.2709   0.2724
     0.5991   0.6053   0.7002   0.7005   0.7405   0.7427   0.8836   0.8879
     1.0094   1.0107   1.0977   1.6960   1.7146   1.7151   1.7550   1.7586
     1.7983   1.8093   1.8833   1.8876   2.0915   2.0928   2.3255   2.4043
     2.4111   2.4231   2.7988   2.8086   2.8769   2.8790   2.8843   2.8859
     3.0362   3.0372   3.0731   3.1772   3.1828   3.4079   3.4178   3.5465
     3.5728   3.5761   3.8432   3.8472   3.9543   3.9769   3.9771   4.0103
     4.0360   4.1629   4.1653   4.4006   4.4019   4.4785   4.4891   4.6037
     4.6130   4.6219   4.6333   4.6464   4.8056   5.4011   5.4076   5.4374
     5.5400   5.5452   5.6011   5.6981   5.7241   5.7272   5.7392   5.8379
     5.8382   5.8936   5.8944   5.9365   5.9808   6.0533   6.0666   6.1676
     6.1786   6.1944   6.2041   6.2195   6.2322   6.2358   6.2446   6.2476

          k = 0.2500 0.2500-0.2500 (167588 PWs)   bands (ev):

   -19.6121  -7.4209  -6.7290  -6.2008  -6.1998  -5.7708  -5.3622  -5.2689
    -5.2680  -5.0724  -5.0724  -4.9553  -4.9546  -4.8760  -4.8533  -4.7801
    -4.6949  -4.6915  -4.6526  -4.6525  -4.4916  -4.4746  -4.4740  -4.4731
    -4.4669  -4.4109  -4.4109  -4.3993  -4.3985  -4.3619  -4.3498  -4.3494
    -4.3072  -4.3072  -4.2736  -4.2724  -4.2209  -4.2201  -4.2102  -4.2082
    -4.2032  -4.1900  -4.1899  -4.1487  -4.1306  -4.1301  -4.1237  -4.1232
    -4.0920  -4.0423  -4.0266  -4.0258  -4.0239  -4.0225  -4.0146  -4.0090
    -4.0086  -4.0084  -3.9443  -3.9440  -3.8949  -3.8938  -3.8815  -3.8555
    -3.8549  -3.8376  -3.8327  -3.8321  -3.8279  -3.8247  -3.7770  -3.7756
    -3.7628  -3.7621  -3.7261  -3.6577  -3.6542  -3.6515  -3.6464  -3.6129
    -3.6037  -3.5908  -3.5603  -3.5592  -3.5320  -3.5302  -3.5100  -3.5091
    -3.4965  -3.4955  -3.4413  -3.4407  -3.4221  -3.4075  -3.3954  -3.3943
    -3.3939  -3.3927  -3.3657  -3.3653  -3.3291  -3.3282  -3.3065  -3.3061
    -3.2737  -3.2734  -3.2550  -3.2275  -3.2275  -3.1903  -3.1898  -3.1544
    -3.1471  -3.1462  -3.1326  -3.1319  -3.1273  -3.1267  -3.0880  -3.0791
    -3.0376  -3.0375  -3.0297  -3.0204  -3.0194  -3.0173  -2.9938  -2.9936
    -2.9726  -2.9723  -2.9712  -2.9448  -2.9448  -2.9373  -2.9345  -2.9342
    -2.8988  -2.8937  -2.8590  -2.8581  -2.8578  -2.8548  -2.8547  -2.7755
    -2.7655  -2.7616  -2.7605  -2.7598  -2.7593  -2.7545  -2.7544  -2.7543
    -2.7533  -2.7444  -2.7366  -2.7197  -2.7169  -2.7168  -2.7148  -2.7015
    -2.6968  -2.6585  -2.6578  -2.6577  -2.6541  -2.6527  -2.6354  -2.6347
    -2.6261  -2.6261  -2.6238  -2.5645  -2.5643  -2.5589  -2.5588  -2.5540
    -2.5533  -2.5255  -2.4662  -2.4653  -2.4648  -2.4632  -2.4516  -2.4499
    -2.4444  -2.4338  -2.4334  -2.3972  -2.3960  -2.3881  -2.3871  -2.3868
    -2.3863  -2.3474  -2.3466  -2.3372  -2.3370  -2.3356  -2.3351  -2.2931
    -2.2766  -2.2722  -2.2186  -2.2181  -2.2000  -2.1986  -2.1932  -2.1925
    -2.1448  -2.1434  -2.1204  -2.1044  -2.0903  -2.0892  -2.0889  -2.0672
    -2.0668  -2.0572  -2.0402  -1.9996  -1.9985  -1.9862  -1.9861  -1.9855
    -1.9742  -1.9741  -1.9589  -1.9586  -1.9563  -1.9539  -1.9503  -1.9494
    -1.9477  -1.9366  -1.9360  -1.9187  -1.9182  -1.9162  -1.9104  -1.9071
    -1.9066  -1.8833  -1.8827  -1.8715  -1.8697  -1.8658  -1.8635  -1.8260
    -1.7931  -1.7916  -1.7569  -1.7402  -1.7394  -1.7321  -1.7289  -1.7068
    -1.7048  -1.6981  -1.6905  -1.6895  -1.6884  -1.6872  -1.6855  -1.6532
    -1.6526  -1.6519  -1.6179  -1.6063  -1.6057  -1.5665  -1.5650  -1.5190
    -1.5188  -1.5065  -1.4841  -1.4785  -1.4770  -1.4597  -1.4579  -1.4413
    -1.4404  -1.4363  -1.4360  -1.4343  -1.4336  -1.4320  -1.4294  -1.4107
    -1.4098  -1.3990  -1.3827  -1.3636  -1.3631  -1.3376  -1.3374  -1.3346
    -1.3339  -1.3312  -1.3269  -1.3059  -1.3056  -1.2914  -1.2889  -1.2772
    -1.2680  -1.2546  -1.2533  -1.2235  -1.2229  -1.2150  -1.2142  -1.1798
    -1.1788  -1.1713  -1.1701  -1.1624  -1.1613  -1.1407  -1.1401  -1.1285
    -1.1219  -1.1213  -1.1090  -1.1084  -1.1074  -1.1057  -1.0932  -1.0828
    -1.0819  -1.0747  -1.0744  -1.0624  -1.0577  -1.0564  -1.0510  -1.0119
    -1.0096  -1.0035  -1.0028  -1.0024  -0.9999  -0.9624  -0.9463  -0.9452
    -0.9449  -0.9439  -0.9395  -0.9388  -0.9350  -0.9208  -0.9205  -0.8838
    -0.8820  -0.8761  -0.8758  -0.8532  -0.8528  -0.8432  -0.8134  -0.8057
    -0.7786  -0.7778  -0.7504  -0.7500  -0.7470  -0.7462  -0.7455  -0.7417
    -0.7376  -0.7360  -0.7317  -0.7313  -0.6996  -0.6990  -0.6820  -0.6796
    -0.6759  -0.6758  -0.6740  -0.6710  -0.6551  -0.3773  -0.3706  -0.3152
    -0.3082  -0.2736  -0.1133  -0.0482  -0.0473  -0.0154   0.2709   0.2724
     0.5991   0.6053   0.7002   0.7005   0.7405   0.7427   0.8837   0.8879
     1.0094   1.0107   1.0977   1.6960   1.7146   1.7152   1.7550   1.7586
     1.7983   1.8093   1.8833   1.8876   2.0915   2.0928   2.3255   2.4043
     2.4111   2.4231   2.7988   2.8086   2.8769   2.8790   2.8843   2.8859
     3.0362   3.0371   3.0731   3.1772   3.1828   3.4079   3.4178   3.5465
     3.5728   3.5761   3.8432   3.8472   3.9543   3.9769   3.9771   4.0105
     4.0361   4.1629   4.1653   4.4006   4.4019   4.4784   4.4891   4.6026
     4.6130   4.6215   4.6333   4.6464   4.8049   5.3997   5.4076   5.4104
     5.5400   5.5449   5.6692   5.6904   5.7239   5.7278   5.7394   5.8378
     5.8382   5.8936   5.8944   5.9366   5.9894   6.0419   6.1079   6.1569
     6.1864   6.2041   6.2188   6.2242   6.2322   6.2361   6.2446   6.2481

          k =-0.2500-0.2500 0.0833 (167653 PWs)   bands (ev):

   -19.6121  -7.4209  -6.7290  -6.2008  -6.1998  -5.7708  -5.3622  -5.2689
    -5.2680  -5.0724  -5.0724  -4.9553  -4.9546  -4.8760  -4.8533  -4.7801
    -4.6949  -4.6915  -4.6526  -4.6525  -4.4916  -4.4746  -4.4740  -4.4731
    -4.4669  -4.4109  -4.4109  -4.3993  -4.3985  -4.3619  -4.3498  -4.3494
    -4.3072  -4.3072  -4.2736  -4.2724  -4.2209  -4.2201  -4.2102  -4.2082
    -4.2032  -4.1900  -4.1899  -4.1487  -4.1306  -4.1301  -4.1237  -4.1232
    -4.0920  -4.0423  -4.0266  -4.0258  -4.0239  -4.0225  -4.0146  -4.0090
    -4.0085  -4.0084  -3.9443  -3.9440  -3.8949  -3.8938  -3.8815  -3.8556
    -3.8549  -3.8376  -3.8327  -3.8321  -3.8279  -3.8246  -3.7770  -3.7756
    -3.7628  -3.7621  -3.7261  -3.6577  -3.6542  -3.6515  -3.6464  -3.6129
    -3.6037  -3.5908  -3.5603  -3.5592  -3.5320  -3.5302  -3.5100  -3.5091
    -3.4965  -3.4955  -3.4413  -3.4407  -3.4221  -3.4075  -3.3954  -3.3943
    -3.3939  -3.3927  -3.3657  -3.3653  -3.3291  -3.3282  -3.3065  -3.3061
    -3.2737  -3.2735  -3.2550  -3.2275  -3.2275  -3.1903  -3.1899  -3.1544
    -3.1471  -3.1462  -3.1327  -3.1319  -3.1273  -3.1267  -3.0880  -3.0791
    -3.0376  -3.0375  -3.0297  -3.0204  -3.0194  -3.0173  -2.9938  -2.9936
    -2.9726  -2.9723  -2.9712  -2.9448  -2.9448  -2.9373  -2.9345  -2.9342
    -2.8988  -2.8938  -2.8590  -2.8581  -2.8578  -2.8548  -2.8547  -2.7755
    -2.7655  -2.7616  -2.7605  -2.7598  -2.7592  -2.7545  -2.7544  -2.7543
    -2.7533  -2.7444  -2.7366  -2.7197  -2.7169  -2.7168  -2.7149  -2.7015
    -2.6968  -2.6585  -2.6578  -2.6577  -2.6541  -2.6527  -2.6354  -2.6347
    -2.6261  -2.6261  -2.6238  -2.5645  -2.5643  -2.5589  -2.5588  -2.5541
    -2.5534  -2.5255  -2.4662  -2.4653  -2.4648  -2.4632  -2.4516  -2.4499
    -2.4444  -2.4338  -2.4334  -2.3972  -2.3960  -2.3881  -2.3872  -2.3868
    -2.3863  -2.3474  -2.3466  -2.3372  -2.3370  -2.3356  -2.3351  -2.2931
    -2.2766  -2.2722  -2.2186  -2.2181  -2.2000  -2.1986  -2.1932  -2.1925
    -2.1448  -2.1434  -2.1204  -2.1044  -2.0903  -2.0892  -2.0889  -2.0672
    -2.0668  -2.0572  -2.0402  -1.9996  -1.9985  -1.9862  -1.9861  -1.9855
    -1.9742  -1.9741  -1.9589  -1.9586  -1.9563  -1.9539  -1.9503  -1.9494
    -1.9477  -1.9366  -1.9360  -1.9187  -1.9182  -1.9162  -1.9104  -1.9071
    -1.9066  -1.8833  -1.8827  -1.8715  -1.8697  -1.8659  -1.8635  -1.8260
    -1.7931  -1.7916  -1.7569  -1.7402  -1.7394  -1.7321  -1.7289  -1.7068
    -1.7048  -1.6981  -1.6905  -1.6895  -1.6884  -1.6872  -1.6855  -1.6532
    -1.6526  -1.6519  -1.6179  -1.6063  -1.6057  -1.5665  -1.5650  -1.5190
    -1.5188  -1.5064  -1.4841  -1.4784  -1.4770  -1.4597  -1.4579  -1.4413
    -1.4404  -1.4363  -1.4360  -1.4343  -1.4336  -1.4320  -1.4294  -1.4107
    -1.4098  -1.3989  -1.3827  -1.3636  -1.3631  -1.3376  -1.3374  -1.3346
    -1.3339  -1.3312  -1.3269  -1.3059  -1.3056  -1.2914  -1.2889  -1.2772
    -1.2680  -1.2546  -1.2533  -1.2235  -1.2228  -1.2150  -1.2142  -1.1798
    -1.1788  -1.1713  -1.1701  -1.1624  -1.1613  -1.1407  -1.1401  -1.1285
    -1.1219  -1.1213  -1.1090  -1.1084  -1.1074  -1.1057  -1.0932  -1.0828
    -1.0819  -1.0747  -1.0744  -1.0624  -1.0577  -1.0564  -1.0510  -1.0119
    -1.0096  -1.0035  -1.0028  -1.0024  -0.9999  -0.9624  -0.9463  -0.9452
    -0.9450  -0.9439  -0.9395  -0.9388  -0.9350  -0.9208  -0.9205  -0.8838
    -0.8820  -0.8761  -0.8758  -0.8532  -0.8528  -0.8432  -0.8134  -0.8057
    -0.7787  -0.7779  -0.7504  -0.7500  -0.7470  -0.7462  -0.7455  -0.7417
    -0.7376  -0.7361  -0.7317  -0.7313  -0.6996  -0.6990  -0.6820  -0.6796
    -0.6759  -0.6758  -0.6740  -0.6710  -0.6551  -0.3773  -0.3706  -0.3152
    -0.3082  -0.2736  -0.1133  -0.0482  -0.0473  -0.0154   0.2709   0.2724
     0.5991   0.6053   0.7002   0.7005   0.7405   0.7427   0.8836   0.8879
     1.0094   1.0107   1.0977   1.6960   1.7146   1.7151   1.7550   1.7586
     1.7983   1.8093   1.8833   1.8876   2.0915   2.0928   2.3255   2.4043
     2.4111   2.4231   2.7988   2.8086   2.8769   2.8790   2.8843   2.8859
     3.0362   3.0372   3.0731   3.1772   3.1828   3.4079   3.4178   3.5465
     3.5728   3.5761   3.8432   3.8472   3.9543   3.9769   3.9771   4.0103
     4.0360   4.1629   4.1653   4.4006   4.4019   4.4785   4.4891   4.6037
     4.6130   4.6219   4.6333   4.6464   4.8055   5.4012   5.4076   5.4370
     5.5400   5.5453   5.6021   5.6981   5.7241   5.7272   5.7390   5.8379
     5.8382   5.8936   5.8944   5.9365   5.9812   6.0507   6.0661   6.1675
     6.1786   6.1959   6.2047   6.2195   6.2322   6.2358   6.2446   6.2477

          k =-0.2500 0.2500-0.0833 (167653 PWs)   bands (ev):

   -19.6121  -7.4209  -6.7290  -6.2012  -6.1994  -5.7708  -5.3622  -5.2693
    -5.2676  -5.0724  -5.0724  -4.9559  -4.9541  -4.8760  -4.8534  -4.7801
    -4.6949  -4.6915  -4.6526  -4.6525  -4.4916  -4.4746  -4.4743  -4.4728
    -4.4669  -4.4109  -4.4109  -4.3996  -4.3982  -4.3619  -4.3503  -4.3489
    -4.3072  -4.3071  -4.2736  -4.2724  -4.2213  -4.2196  -4.2102  -4.2082
    -4.2032  -4.1900  -4.1899  -4.1487  -4.1309  -4.1300  -4.1238  -4.1230
    -4.0921  -4.0423  -4.0269  -4.0255  -4.0235  -4.0228  -4.0146  -4.0090
    -4.0085  -4.0084  -3.9445  -3.9437  -3.8945  -3.8941  -3.8815  -3.8554
    -3.8550  -3.8376  -3.8324  -3.8324  -3.8279  -3.8246  -3.7770  -3.7756
    -3.7631  -3.7618  -3.7260  -3.6581  -3.6537  -3.6519  -3.6462  -3.6129
    -3.6037  -3.5908  -3.5603  -3.5592  -3.5323  -3.5299  -3.5101  -3.5089
    -3.4969  -3.4951  -3.4415  -3.4405  -3.4221  -3.4075  -3.3955  -3.3944
    -3.3937  -3.3927  -3.3658  -3.3651  -3.3291  -3.3282  -3.3067  -3.3059
    -3.2739  -3.2732  -3.2550  -3.2276  -3.2274  -3.1906  -3.1896  -3.1545
    -3.1471  -3.1462  -3.1329  -3.1317  -3.1274  -3.1266  -3.0880  -3.0791
    -3.0376  -3.0376  -3.0297  -3.0201  -3.0198  -3.0172  -2.9939  -2.9936
    -2.9730  -2.9723  -2.9706  -2.9448  -2.9448  -2.9373  -2.9344  -2.9343
    -2.8988  -2.8937  -2.8593  -2.8579  -2.8578  -2.8548  -2.8546  -2.7755
    -2.7655  -2.7621  -2.7601  -2.7599  -2.7590  -2.7547  -2.7545  -2.7543
    -2.7530  -2.7444  -2.7366  -2.7197  -2.7171  -2.7168  -2.7146  -2.7015
    -2.6967  -2.6584  -2.6581  -2.6575  -2.6545  -2.6523  -2.6357  -2.6345
    -2.6262  -2.6261  -2.6238  -2.5646  -2.5643  -2.5589  -2.5587  -2.5538
    -2.5534  -2.5255  -2.4661  -2.4655  -2.4646  -2.4633  -2.4516  -2.4498
    -2.4443  -2.4339  -2.4333  -2.3978  -2.3955  -2.3887  -2.3875  -2.3865
    -2.3859  -2.3477  -2.3464  -2.3373  -2.3370  -2.3357  -2.3350  -2.2930
    -2.2766  -2.2726  -2.2188  -2.2179  -2.2000  -2.1986  -2.1931  -2.1927
    -2.1454  -2.1431  -2.1204  -2.1046  -2.0903  -2.0891  -2.0889  -2.0672
    -2.0666  -2.0572  -2.0402  -1.9999  -1.9982  -1.9865  -1.9863  -1.9852
    -1.9743  -1.9738  -1.9589  -1.9581  -1.9570  -1.9539  -1.9509  -1.9495
    -1.9467  -1.9371  -1.9357  -1.9188  -1.9182  -1.9162  -1.9102  -1.9073
    -1.9063  -1.8838  -1.8824  -1.8716  -1.8696  -1.8660  -1.8632  -1.8260
    -1.7936  -1.7911  -1.7569  -1.7402  -1.7397  -1.7298  -1.7285  -1.7097
    -1.7059  -1.6908  -1.6901  -1.6886  -1.6885  -1.6860  -1.6852  -1.6533
    -1.6526  -1.6522  -1.6278  -1.6070  -1.6035  -1.5663  -1.5657  -1.5194
    -1.5177  -1.5061  -1.4842  -1.4783  -1.4770  -1.4593  -1.4589  -1.4418
    -1.4394  -1.4367  -1.4357  -1.4348  -1.4324  -1.4310  -1.4308  -1.4106
    -1.4103  -1.3988  -1.3828  -1.3637  -1.3634  -1.3378  -1.3373  -1.3350
    -1.3336  -1.3302  -1.3262  -1.3069  -1.3049  -1.2927  -1.2880  -1.2767
    -1.2680  -1.2551  -1.2528  -1.2236  -1.2227  -1.2153  -1.2140  -1.1806
    -1.1777  -1.1716  -1.1698  -1.1628  -1.1612  -1.1410  -1.1398  -1.1285
    -1.1222  -1.1211  -1.1092  -1.1088  -1.1072  -1.1050  -1.0933  -1.0823
    -1.0821  -1.0749  -1.0743  -1.0622  -1.0588  -1.0562  -1.0510  -1.0121
    -1.0090  -1.0035  -1.0030  -1.0026  -0.9999  -0.9624  -0.9471  -0.9451
    -0.9446  -0.9437  -0.9407  -0.9383  -0.9351  -0.9206  -0.9205  -0.8844
    -0.8814  -0.8761  -0.8756  -0.8534  -0.8526  -0.8432  -0.8135  -0.8058
    -0.7790  -0.7775  -0.7505  -0.7500  -0.7470  -0.7462  -0.7455  -0.7417
    -0.7375  -0.7361  -0.7319  -0.7309  -0.6999  -0.6987  -0.6829  -0.6792
    -0.6762  -0.6753  -0.6749  -0.6698  -0.6551  -0.3773  -0.3706  -0.3171
    -0.3065  -0.2736  -0.1129  -0.0487  -0.0468  -0.0152   0.2701   0.2732
     0.5973   0.6070   0.6998   0.7009   0.7397   0.7439   0.8816   0.8894
     1.0094   1.0106   1.0980   1.6964   1.7147   1.7150   1.7542   1.7586
     1.7939   1.8131   1.8818   1.8895   2.0907   2.0935   2.3254   2.4024
     2.4128   2.4233   2.7953   2.8108   2.8767   2.8795   2.8838   2.8865
     3.0364   3.0370   3.0711   3.1741   3.1888   3.4077   3.4200   3.5463
     3.5716   3.5771   3.8411   3.8494   3.9563   3.9768   3.9781   4.0223
     4.0246   4.1620   4.1665   4.4005   4.4022   4.4867   4.4876   4.5645
     4.6125   4.6188   4.6294   4.6526   4.8361   5.3791   5.4207   5.4881
     5.5259   5.5532   5.5946   5.6364   5.7222   5.7296   5.7430   5.8363
     5.8395   5.8928   5.8956   5.9382   5.9872   6.0057   6.1305   6.1458
     6.1773   6.2073   6.2187   6.2280   6.2303   6.2319   6.2422   6.2448

          k = 0.2500-0.2500-0.0833 (167653 PWs)   bands (ev):

   -19.6121  -7.4209  -6.7290  -6.2012  -6.1994  -5.7708  -5.3622  -5.2693
    -5.2676  -5.0724  -5.0724  -4.9559  -4.9541  -4.8760  -4.8534  -4.7801
    -4.6949  -4.6915  -4.6526  -4.6525  -4.4916  -4.4746  -4.4743  -4.4728
    -4.4669  -4.4109  -4.4109  -4.3996  -4.3982  -4.3619  -4.3503  -4.3489
    -4.3072  -4.3071  -4.2736  -4.2724  -4.2213  -4.2196  -4.2102  -4.2082
    -4.2032  -4.1900  -4.1899  -4.1487  -4.1309  -4.1300  -4.1238  -4.1230
    -4.0921  -4.0423  -4.0269  -4.0255  -4.0235  -4.0228  -4.0146  -4.0090
    -4.0085  -4.0084  -3.9445  -3.9437  -3.8945  -3.8941  -3.8815  -3.8554
    -3.8550  -3.8376  -3.8324  -3.8324  -3.8279  -3.8246  -3.7770  -3.7756
    -3.7631  -3.7618  -3.7260  -3.6581  -3.6537  -3.6519  -3.6462  -3.6129
    -3.6037  -3.5908  -3.5603  -3.5592  -3.5323  -3.5299  -3.5101  -3.5089
    -3.4969  -3.4951  -3.4415  -3.4405  -3.4221  -3.4075  -3.3955  -3.3944
    -3.3937  -3.3927  -3.3658  -3.3651  -3.3291  -3.3282  -3.3067  -3.3059
    -3.2739  -3.2732  -3.2550  -3.2276  -3.2274  -3.1906  -3.1896  -3.1545
    -3.1471  -3.1462  -3.1329  -3.1317  -3.1274  -3.1266  -3.0880  -3.0791
    -3.0376  -3.0376  -3.0297  -3.0201  -3.0198  -3.0172  -2.9939  -2.9936
    -2.9730  -2.9723  -2.9706  -2.9448  -2.9448  -2.9373  -2.9344  -2.9343
    -2.8988  -2.8937  -2.8593  -2.8579  -2.8578  -2.8548  -2.8546  -2.7755
    -2.7655  -2.7621  -2.7601  -2.7599  -2.7590  -2.7547  -2.7545  -2.7543
    -2.7530  -2.7444  -2.7366  -2.7197  -2.7171  -2.7168  -2.7146  -2.7015
    -2.6967  -2.6584  -2.6581  -2.6575  -2.6545  -2.6523  -2.6357  -2.6345
    -2.6262  -2.6261  -2.6238  -2.5646  -2.5643  -2.5589  -2.5587  -2.5538
    -2.5534  -2.5255  -2.4661  -2.4655  -2.4646  -2.4633  -2.4516  -2.4498
    -2.4443  -2.4339  -2.4333  -2.3978  -2.3955  -2.3887  -2.3875  -2.3865
    -2.3859  -2.3477  -2.3464  -2.3373  -2.3370  -2.3357  -2.3350  -2.2930
    -2.2766  -2.2726  -2.2188  -2.2179  -2.2000  -2.1986  -2.1931  -2.1927
    -2.1454  -2.1431  -2.1204  -2.1046  -2.0903  -2.0891  -2.0889  -2.0672
    -2.0666  -2.0572  -2.0402  -1.9999  -1.9982  -1.9865  -1.9863  -1.9852
    -1.9743  -1.9738  -1.9589  -1.9581  -1.9570  -1.9539  -1.9509  -1.9495
    -1.9467  -1.9371  -1.9357  -1.9188  -1.9182  -1.9162  -1.9102  -1.9073
    -1.9063  -1.8838  -1.8824  -1.8716  -1.8696  -1.8660  -1.8632  -1.8260
    -1.7936  -1.7911  -1.7569  -1.7402  -1.7397  -1.7298  -1.7285  -1.7097
    -1.7059  -1.6908  -1.6901  -1.6886  -1.6885  -1.6860  -1.6852  -1.6533
    -1.6526  -1.6522  -1.6278  -1.6070  -1.6035  -1.5663  -1.5657  -1.5194
    -1.5177  -1.5061  -1.4842  -1.4783  -1.4770  -1.4593  -1.4589  -1.4418
    -1.4394  -1.4367  -1.4357  -1.4348  -1.4324  -1.4310  -1.4308  -1.4106
    -1.4103  -1.3988  -1.3828  -1.3637  -1.3634  -1.3378  -1.3373  -1.3350
    -1.3336  -1.3302  -1.3262  -1.3069  -1.3049  -1.2927  -1.2880  -1.2767
    -1.2680  -1.2551  -1.2528  -1.2236  -1.2227  -1.2153  -1.2140  -1.1806
    -1.1777  -1.1716  -1.1698  -1.1628  -1.1612  -1.1410  -1.1398  -1.1285
    -1.1222  -1.1211  -1.1092  -1.1088  -1.1072  -1.1050  -1.0933  -1.0823
    -1.0821  -1.0749  -1.0743  -1.0622  -1.0588  -1.0562  -1.0510  -1.0121
    -1.0090  -1.0035  -1.0030  -1.0026  -0.9999  -0.9624  -0.9471  -0.9451
    -0.9446  -0.9437  -0.9407  -0.9383  -0.9351  -0.9206  -0.9205  -0.8844
    -0.8814  -0.8761  -0.8756  -0.8534  -0.8526  -0.8432  -0.8135  -0.8058
    -0.7790  -0.7775  -0.7505  -0.7500  -0.7470  -0.7462  -0.7455  -0.7417
    -0.7375  -0.7361  -0.7319  -0.7309  -0.6999  -0.6987  -0.6829  -0.6792
    -0.6762  -0.6753  -0.6749  -0.6698  -0.6551  -0.3773  -0.3706  -0.3171
    -0.3065  -0.2736  -0.1129  -0.0487  -0.0468  -0.0152   0.2701   0.2732
     0.5973   0.6070   0.6998   0.7009   0.7397   0.7439   0.8816   0.8894
     1.0094   1.0106   1.0980   1.6964   1.7147   1.7150   1.7542   1.7586
     1.7939   1.8131   1.8818   1.8895   2.0907   2.0935   2.3254   2.4024
     2.4128   2.4233   2.7953   2.8108   2.8767   2.8795   2.8838   2.8865
     3.0364   3.0370   3.0711   3.1741   3.1888   3.4077   3.4200   3.5463
     3.5716   3.5771   3.8411   3.8494   3.9563   3.9768   3.9781   4.0223
     4.0246   4.1620   4.1665   4.4005   4.4022   4.4867   4.4876   4.5645
     4.6125   4.6188   4.6294   4.6526   4.8361   5.3791   5.4207   5.4880
     5.5260   5.5532   5.5949   5.6362   5.7222   5.7296   5.7430   5.8363
     5.8395   5.8928   5.8956   5.9382   5.9872   6.0057   6.1298   6.1464
     6.1774   6.2074   6.2187   6.2281   6.2304   6.2318   6.2422   6.2448

          k =-0.2500 0.2500 0.2500 (167588 PWs)   bands (ev):

   -19.6121  -7.4209  -6.7290  -6.2012  -6.1994  -5.7708  -5.3622  -5.2693
    -5.2676  -5.0724  -5.0724  -4.9559  -4.9541  -4.8760  -4.8534  -4.7801
    -4.6949  -4.6915  -4.6526  -4.6525  -4.4916  -4.4746  -4.4743  -4.4728
    -4.4669  -4.4109  -4.4109  -4.3996  -4.3982  -4.3619  -4.3503  -4.3489
    -4.3072  -4.3071  -4.2736  -4.2724  -4.2213  -4.2196  -4.2103  -4.2082
    -4.2032  -4.1900  -4.1899  -4.1487  -4.1309  -4.1300  -4.1238  -4.1230
    -4.0921  -4.0423  -4.0269  -4.0255  -4.0235  -4.0228  -4.0146  -4.0090
    -4.0085  -4.0084  -3.9445  -3.9437  -3.8945  -3.8941  -3.8815  -3.8554
    -3.8550  -3.8376  -3.8324  -3.8324  -3.8279  -3.8246  -3.7770  -3.7756
    -3.7631  -3.7618  -3.7259  -3.6581  -3.6537  -3.6519  -3.6462  -3.6129
    -3.6037  -3.5908  -3.5603  -3.5592  -3.5323  -3.5299  -3.5101  -3.5089
    -3.4969  -3.4951  -3.4415  -3.4405  -3.4221  -3.4075  -3.3955  -3.3944
    -3.3937  -3.3927  -3.3658  -3.3651  -3.3291  -3.3281  -3.3067  -3.3059
    -3.2739  -3.2732  -3.2550  -3.2276  -3.2274  -3.1906  -3.1896  -3.1545
    -3.1471  -3.1462  -3.1329  -3.1317  -3.1274  -3.1266  -3.0880  -3.0791
    -3.0376  -3.0376  -3.0297  -3.0201  -3.0198  -3.0172  -2.9939  -2.9936
    -2.9730  -2.9723  -2.9706  -2.9448  -2.9448  -2.9373  -2.9344  -2.9343
    -2.8988  -2.8937  -2.8593  -2.8579  -2.8578  -2.8548  -2.8546  -2.7755
    -2.7655  -2.7621  -2.7601  -2.7599  -2.7590  -2.7547  -2.7545  -2.7543
    -2.7530  -2.7444  -2.7366  -2.7197  -2.7171  -2.7168  -2.7146  -2.7015
    -2.6967  -2.6584  -2.6581  -2.6575  -2.6545  -2.6523  -2.6357  -2.6345
    -2.6262  -2.6261  -2.6238  -2.5646  -2.5643  -2.5589  -2.5587  -2.5538
    -2.5534  -2.5255  -2.4661  -2.4655  -2.4646  -2.4633  -2.4516  -2.4498
    -2.4443  -2.4339  -2.4333  -2.3978  -2.3955  -2.3887  -2.3875  -2.3865
    -2.3859  -2.3477  -2.3464  -2.3373  -2.3370  -2.3357  -2.3350  -2.2930
    -2.2766  -2.2726  -2.2188  -2.2179  -2.2000  -2.1986  -2.1931  -2.1927
    -2.1454  -2.1431  -2.1204  -2.1046  -2.0903  -2.0891  -2.0889  -2.0672
    -2.0666  -2.0572  -2.0402  -1.9999  -1.9982  -1.9865  -1.9863  -1.9852
    -1.9743  -1.9738  -1.9589  -1.9581  -1.9570  -1.9539  -1.9509  -1.9495
    -1.9467  -1.9371  -1.9357  -1.9188  -1.9182  -1.9162  -1.9102  -1.9073
    -1.9063  -1.8838  -1.8824  -1.8716  -1.8696  -1.8660  -1.8632  -1.8261
    -1.7936  -1.7911  -1.7569  -1.7402  -1.7397  -1.7298  -1.7285  -1.7097
    -1.7059  -1.6908  -1.6900  -1.6886  -1.6884  -1.6860  -1.6852  -1.6533
    -1.6526  -1.6522  -1.6278  -1.6070  -1.6035  -1.5663  -1.5657  -1.5194
    -1.5177  -1.5061  -1.4842  -1.4783  -1.4770  -1.4593  -1.4589  -1.4418
    -1.4394  -1.4367  -1.4357  -1.4348  -1.4324  -1.4310  -1.4308  -1.4106
    -1.4103  -1.3988  -1.3828  -1.3637  -1.3634  -1.3378  -1.3373  -1.3350
    -1.3336  -1.3302  -1.3262  -1.3069  -1.3049  -1.2927  -1.2880  -1.2767
    -1.2680  -1.2551  -1.2527  -1.2236  -1.2227  -1.2153  -1.2140  -1.1806
    -1.1777  -1.1716  -1.1698  -1.1628  -1.1612  -1.1410  -1.1398  -1.1285
    -1.1222  -1.1211  -1.1092  -1.1088  -1.1072  -1.1050  -1.0933  -1.0823
    -1.0821  -1.0749  -1.0743  -1.0622  -1.0588  -1.0562  -1.0510  -1.0121
    -1.0090  -1.0035  -1.0030  -1.0026  -0.9999  -0.9624  -0.9470  -0.9451
    -0.9446  -0.9437  -0.9407  -0.9383  -0.9351  -0.9206  -0.9205  -0.8844
    -0.8814  -0.8761  -0.8756  -0.8534  -0.8526  -0.8432  -0.8135  -0.8058
    -0.7789  -0.7775  -0.7505  -0.7500  -0.7470  -0.7462  -0.7455  -0.7417
    -0.7375  -0.7361  -0.7319  -0.7309  -0.6999  -0.6987  -0.6829  -0.6792
    -0.6762  -0.6753  -0.6749  -0.6698  -0.6551  -0.3773  -0.3706  -0.3171
    -0.3065  -0.2736  -0.1129  -0.0487  -0.0468  -0.0152   0.2701   0.2732
     0.5973   0.6070   0.6998   0.7009   0.7397   0.7439   0.8816   0.8895
     1.0094   1.0106   1.0980   1.6964   1.7147   1.7150   1.7542   1.7586
     1.7939   1.8131   1.8818   1.8896   2.0907   2.0935   2.3254   2.4024
     2.4128   2.4233   2.7953   2.8108   2.8767   2.8795   2.8838   2.8865
     3.0364   3.0370   3.0712   3.1741   3.1888   3.4077   3.4200   3.5463
     3.5716   3.5771   3.8411   3.8494   3.9563   3.9768   3.9781   4.0225
     4.0247   4.1620   4.1665   4.4005   4.4022   4.4867   4.4876   4.5634
     4.6125   4.6188   4.6294   4.6525   4.8350   5.3791   5.4086   5.4747
     5.5236   5.5524   5.5807   5.7221   5.7286   5.7325   5.7376   5.8362
     5.8399   5.8928   5.8957   5.9382   5.9892   6.0492   6.0574   6.1866
     6.1981   6.2024   6.2187   6.2293   6.2369   6.2415   6.2432   6.2468

     the Fermi energy is     0.9597 ev

!    total energy              =   -7425.29482431 Ry
     Harris-Foulkes estimate   =   -7425.29482430 Ry
     estimated scf accuracy    <          2.8E-09 Ry

     The total energy is the sum of the following terms:

     one-electron contribution =  -48616.00537898 Ry
     hartree contribution      =   24861.52396796 Ry
     xc contribution           =   -3604.20281557 Ry
     ewald contribution        =   19933.39227815 Ry
     smearing contrib. (-TS)   =      -0.00287587 Ry

     convergence has been achieved in  29 iterations

     Writing output data file 6816392.save

     init_run     :    103.12s CPU    108.15s WALL (       1 calls)
     electrons    :   7554.45s CPU   7861.57s WALL (       1 calls)

     Called by init_run:
     wfcinit      :     76.74s CPU     81.11s WALL (       1 calls)
     potinit      :      6.90s CPU      7.32s WALL (       1 calls)

     Called by electrons:
     c_bands      :   6274.32s CPU   6521.25s WALL (      30 calls)
     sum_band     :    883.95s CPU    928.85s WALL (      30 calls)
     v_of_rho     :    110.55s CPU    120.38s WALL (      30 calls)
     newd         :    294.51s CPU    297.72s WALL (      30 calls)
     mix_rho      :      2.61s CPU      2.99s WALL (      30 calls)
     vdW_energy   :      7.82s CPU      8.39s WALL (      30 calls)
     vdW_ffts     :     59.87s CPU     64.86s WALL (      60 calls)
     vdW_v        :     14.51s CPU     15.34s WALL (      30 calls)

     Called by c_bands:
     init_us_2    :      9.06s CPU      9.33s WALL (     366 calls)
     cegterg      :   6133.60s CPU   6362.32s WALL (     180 calls)

     Called by *egterg:
     h_psi        :   2421.49s CPU   2613.65s WALL (     892 calls)
     s_psi        :    375.78s CPU    377.40s WALL (     892 calls)
     g_psi        :      4.76s CPU      4.80s WALL (     706 calls)
     cdiaghg      :   1679.17s CPU   1683.22s WALL (     880 calls)

     Called by h_psi:
     add_vuspsi   :    377.18s CPU    378.99s WALL (     892 calls)

     General routines
     calbec       :    719.42s CPU    721.33s WALL (    1072 calls)
     fft          :    163.64s CPU    173.01s WALL (    1980 calls)
     ffts         :      1.48s CPU      1.71s WALL (      60 calls)
     fftw         :   1771.26s CPU   1987.76s WALL (  483198 calls)
     interpolate  :      3.64s CPU      4.27s WALL (      60 calls)
     davcio       :      0.00s CPU      0.10s WALL (       6 calls)

     Parallel routines
     fft_scatter  :   1367.81s CPU   1541.87s WALL (  485238 calls)

     PWSCF        :     2h 8m CPU        2h13m WALL


   This run was terminated on:  18:19:12  23Jun2015            

=------------------------------------------------------------------------------=
   JOB DONE.
=------------------------------------------------------------------------------=
