Setting SGE environment for SCC

     Program PWSCF v.5.1.2 starts on 29Aug2015 at 17:41:14 

     This program is part of the open-source Quantum ESPRESSO suite
     for quantum simulation of materials; please cite
         "P. Giannozzi et al., J. Phys.:Condens. Matter 21 395502 (2009);
          URL http://www.quantum-espresso.org", 
     in publications or presentations arising from this work. More details at
     http://www.quantum-espresso.org/quote

     Parallel version (MPI), running on    32 processors
     R & G space division:  proc/nbgrp/npool/nimage =      32
     Reading input from top.O1.Au62.d.3.8.phi.0.psi.0.in
Warning: card &IONS ignored
Warning: card / ignored
Warning: card &CELL ignored
Warning: card / ignored

     Current dimensions of program PWSCF are:
     Max number of different atomic species (ntypx) = 10
     Max number of k-points (npk) =  40000
     Max angular momentum in pseudopotentials (lmaxx) =  3

     IMPORTANT: XC functional enforced from input :
     Exchange-correlation      = VDW-DF ( 1  4  4  0 1 0)
     Any further DFT definition will be discarded
     Please, verify this is what you really want


     Subspace diagonalization in iterative solution of the eigenvalue problem:
     a serial algorithm will be used


     Parallelization info
     --------------------
     sticks:   dense  smooth     PW     G-vecs:    dense   smooth      PW
     Min         578     289     74               118518    41891    5486
     Max         579     290     75               118533    41932    5497
     Sum       18505    9265   2385              3792731  1341081  175711


     Title: 
     top.O1.Au62.d.3.8.phi.0.psi.0                                              


     bravais-lattice index     =            8
     lattice parameter (alat)  =      24.1233  a.u.
     unit-cell volume          =   28076.2361 (a.u.)^3
     number of atoms/cell      =           75
     number of atomic types    =            3
     number of electrons       =       800.00
     number of Kohn-Sham states=          480
     kinetic-energy cutoff     =      50.0000  Ry
     charge density cutoff     =     400.0000  Ry
     convergence threshold     =      1.0E-08
     mixing beta               =       0.7000
     number of iterations used =            8  plain     mixing
     Exchange-correlation      = VDW-DF ( 1  4  4  0 1 0)

     celldm(1)=  24.123277  celldm(2)=   1.000000  celldm(3)=   2.000000
     celldm(4)=   0.000000  celldm(5)=   0.000000  celldm(6)=   0.000000

     crystal axes: (cart. coord. in units of alat)
               a(1) = (   1.000000   0.000000   0.000000 )  
               a(2) = (   0.000000   1.000000   0.000000 )  
               a(3) = (   0.000000   0.000000   2.000000 )  

     reciprocal axes: (cart. coord. in units 2 pi/alat)
               b(1) = (  1.000000  0.000000  0.000000 )  
               b(2) = (  0.000000  1.000000  0.000000 )  
               b(3) = (  0.000000  0.000000  0.500000 )  


     PseudoPot. # 1 for Au read from file:
     /home/scc/andrejb/qe/pseudo/Au.pbe-nd-van.UPF
     MD5 check sum: 458681b50f36d87ef23c61b04bba420a
     Pseudo is Ultrasoft + core correction, Zval = 11.0
     Generated by new atomic code, or converted to UPF format
     Using radial grid of  985 points,  3 beta functions with: 
                l(1) =   1
                l(2) =   2
                l(3) =   2
     Q(r) pseudized with  8 coefficients,  rinner =    1.100   1.100   1.100
                                                       1.100   1.100

     PseudoPot. # 2 for H  read from file:
     /home/scc/andrejb/qe/pseudo/H.pbe-van_ak.UPF
     MD5 check sum: 403db7282739603aa925980fa9b8608d
     Pseudo is Ultrasoft, Zval =  1.0
     Generated by new atomic code, or converted to UPF format
     Using radial grid of  615 points,  1 beta functions with: 
                l(1) =   0
     Q(r) pseudized with  8 coefficients,  rinner =    0.800

     PseudoPot. # 3 for O  read from file:
     /home/scc/andrejb/qe/pseudo/O.pbe-van_ak.UPF
     MD5 check sum: 4b8c549914a63cae506c6ff22b5af4fe
     Pseudo is Ultrasoft, Zval =  6.0
     Generated by new atomic code, or converted to UPF format
     Using radial grid of  737 points,  4 beta functions with: 
                l(1) =   0
                l(2) =   0
                l(3) =   1
                l(4) =   1
     Q(r) pseudized with  8 coefficients,  rinner =    0.800   0.800   0.800


     vdW kernel table read from file vdW_kernel_table
     MD5 check sum: 48e77a2e26edf626eeb0eaa751ad5cac

     atomic species   valence    mass     pseudopotential
        Au            11.00   196.96657     Au( 1.00)
        H              1.00     1.01000     H ( 1.00)
        O              6.00    16.00000     O ( 1.00)

     No symmetry found



   Cartesian axes

     site n.     atom                  positions (alat units)
         1           O   tau(   1) = (   0.4998324   0.3332216   0.7969961  )
         2           H   tau(   2) = (   0.4527548   0.2940501   0.8424900  )
         3           H   tau(   3) = (   0.5454827   0.3712233   0.8448538  )
         4           Au  tau(   4) = (   0.0000000   0.0000000   0.0000000  )
         5           Au  tau(   5) = (   0.3332217   0.0000000   0.0000000  )
         6           Au  tau(   6) = (   0.6664434   0.0000000   0.0000000  )
         7           Au  tau(   7) = (   0.1666109   0.1666109   0.0000000  )
         8           Au  tau(   8) = (   0.4998326   0.1666109   0.0000000  )
         9           Au  tau(   9) = (   0.8330542   0.1666109   0.0000000  )
        10           Au  tau(  10) = (   0.0000000   0.3332217   0.0000000  )
        11           Au  tau(  11) = (   0.3332217   0.3332217   0.0000000  )
        12           Au  tau(  12) = (   0.6664434   0.3332217   0.0000000  )
        13           Au  tau(  13) = (   0.1666109   0.4998326   0.0000000  )
        14           Au  tau(  14) = (   0.4998326   0.4998326   0.0000000  )
        15           Au  tau(  15) = (   0.8330542   0.4998326   0.0000000  )
        16           Au  tau(  16) = (   0.0000000   0.6664434   0.0000000  )
        17           Au  tau(  17) = (   0.3332217   0.6664434   0.0000000  )
        18           Au  tau(  18) = (   0.6664434   0.6664434   0.0000000  )
        19           Au  tau(  19) = (   0.1666109   0.8330542   0.0000000  )
        20           Au  tau(  20) = (   0.4998326   0.8330542   0.0000000  )
        21           Au  tau(  21) = (   0.8330542   0.8330542   0.0000000  )
        22           Au  tau(  22) = (   0.1666109   0.0000000   0.1666109  )
        23           Au  tau(  23) = (   0.4998326   0.0000000   0.1666109  )
        24           Au  tau(  24) = (   0.8330542   0.0000000   0.1666109  )
        25           Au  tau(  25) = (   0.0000000   0.1666109   0.1666109  )
        26           Au  tau(  26) = (   0.3332217   0.1666109   0.1666109  )
        27           Au  tau(  27) = (   0.6664434   0.1666109   0.1666109  )
        28           Au  tau(  28) = (   0.1666109   0.3332217   0.1666109  )
        29           Au  tau(  29) = (   0.4998326   0.3332217   0.1666109  )
        30           Au  tau(  30) = (   0.8330542   0.3332217   0.1666109  )
        31           Au  tau(  31) = (   0.0000000   0.4998326   0.1666109  )
        32           Au  tau(  32) = (   0.3332217   0.4998326   0.1666109  )
        33           Au  tau(  33) = (   0.6664434   0.4998326   0.1666109  )
        34           Au  tau(  34) = (   0.1666109   0.6664434   0.1666109  )
        35           Au  tau(  35) = (   0.4998326   0.6664434   0.1666109  )
        36           Au  tau(  36) = (   0.8330542   0.6664434   0.1666109  )
        37           Au  tau(  37) = (   0.0000000   0.8330542   0.1666109  )
        38           Au  tau(  38) = (   0.3332217   0.8330542   0.1666109  )
        39           Au  tau(  39) = (   0.6664434   0.8330542   0.1666109  )
        40           Au  tau(  40) = (  -0.0000182  -0.0000182   0.3335478  )
        41           Au  tau(  41) = (   0.3332215  -0.0000181   0.3335473  )
        42           Au  tau(  42) = (   0.6664447  -0.0000183   0.3335481  )
        43           Au  tau(  43) = (  -0.0000181   0.3332215   0.3335473  )
        44           Au  tau(  44) = (   0.3332215   0.3332215   0.3335468  )
        45           Au  tau(  45) = (   0.6664445   0.3332215   0.3335477  )
        46           Au  tau(  46) = (  -0.0000183   0.6664447   0.3335481  )
        47           Au  tau(  47) = (   0.3332215   0.6664445   0.3335477  )
        48           Au  tau(  48) = (   0.6664446   0.6664446   0.3335486  )
        49           Au  tau(  49) = (   0.1666097   0.1666097   0.3335483  )
        50           Au  tau(  50) = (   0.4998320   0.1666098   0.3335477  )
        51           Au  tau(  51) = (   0.8330732   0.1666096   0.3335480  )
        52           Au  tau(  52) = (   0.1666098   0.4998320   0.3335477  )
        53           Au  tau(  53) = (   0.4998322   0.4998322   0.3335470  )
        54           Au  tau(  54) = (   0.8330731   0.4998322   0.3335474  )
        55           Au  tau(  55) = (   0.1666096   0.8330732   0.3335480  )
        56           Au  tau(  56) = (   0.4998322   0.8330731   0.3335474  )
        57           Au  tau(  57) = (   0.8330731   0.8330731   0.3335478  )
        58           Au  tau(  58) = (   0.1666104  -0.0000111   0.4993095  )
        59           Au  tau(  59) = (   0.4998323  -0.0000112   0.4993099  )
        60           Au  tau(  60) = (   0.8330660  -0.0000111   0.4993009  )
        61           Au  tau(  61) = (  -0.0000111   0.1666104   0.4993095  )
        62           Au  tau(  62) = (   0.3332213   0.1666106   0.4993185  )
        63           Au  tau(  63) = (   0.6664437   0.1666106   0.4993187  )
        64           Au  tau(  64) = (   0.1666106   0.3332213   0.4993185  )
        65           Au  tau(  65) = (   0.4998324   0.3332216   0.4993185  )
        66           Au  tau(  66) = (   0.8330658   0.3332215   0.4993102  )
        67           Au  tau(  67) = (  -0.0000112   0.4998323   0.4993099  )
        68           Au  tau(  68) = (   0.3332216   0.4998324   0.4993185  )
        69           Au  tau(  69) = (   0.6664437   0.4998325   0.4993187  )
        70           Au  tau(  70) = (   0.1666106   0.6664437   0.4993187  )
        71           Au  tau(  71) = (   0.4998325   0.6664437   0.4993187  )
        72           Au  tau(  72) = (   0.8330658   0.6664438   0.4993102  )
        73           Au  tau(  73) = (  -0.0000111   0.8330660   0.4993009  )
        74           Au  tau(  74) = (   0.3332215   0.8330658   0.4993102  )
        75           Au  tau(  75) = (   0.6664438   0.8330658   0.4993102  )

     number of k points=     6  Marzari-Vanderbilt smearing, width (Ry)=  0.0200
                       cart. coord. in units 2pi/alat
        k(    1) = (   0.2500000   0.2500000   0.0833333), wk =   0.3333333
        k(    2) = (   0.2500000   0.2500000  -0.2500000), wk =   0.3333333
        k(    3) = (  -0.2500000  -0.2500000   0.0833333), wk =   0.3333333
        k(    4) = (  -0.2500000   0.2500000  -0.0833333), wk =   0.3333333
        k(    5) = (   0.2500000  -0.2500000  -0.0833333), wk =   0.3333333
        k(    6) = (  -0.2500000   0.2500000   0.2500000), wk =   0.3333333

     Dense  grid:  3792731 G-vectors     FFT dimensions: ( 160, 160, 320)

     Smooth grid:  1341081 G-vectors     FFT dimensions: ( 120, 120, 225)

     Largest allocated arrays     est. size (Mb)     dimensions
        Kohn-Sham Wavefunctions        38.58 Mb     (    5267,  480)
        NL pseudopotentials            76.03 Mb     (    5267,  946)
        Each V/rho on FFT grid          3.91 Mb     (  256000)
        Each G-vector array             0.90 Mb     (  118520)
        G-vector shells                 0.08 Mb     (   10286)
     Largest temporary arrays     est. size (Mb)     dimensions
        Auxiliary wavefunctions       154.31 Mb     (    5267, 1920)
        Each subspace H/S matrix       56.25 Mb     (    1920, 1920)
        Each <psi_i|beta_j> matrix      6.93 Mb     (     946,  480)
        Arrays for rho mixing          31.25 Mb     (  256000,    8)

     Initial potential from superposition of free atoms
     Check: negative starting charge=   -1.944904

     starting charge  799.16392, renormalised to  800.00000

     negative rho (up, down):  1.947E+00 0.000E+00


     ************************************************************************
     *
     * You are using vdW-DF for exchange-correlation in this calculation.
     * Please cite the following three references that made this development
     * possible:
     *
     *   M. Dion, H. Rydberg, E. Schroder, D. C. Langreth, and
     *   B. I. Lundqvist, Phys. Rev. Lett. 92, 246401 (2004).
     *
     *   T. Thonhauser, V. R. Cooper, S. Li, A. Puzder, P. Hyldgaard, and
     *   D. C. Langreth, Phys. Rev. B 76, 125112 (2007).
     *
     *   G. Roman-Perez and J. M. Soler, Phys. Rev. Lett. 103, 096102 (2009).
     *
     *
     * If you are using vdW-DF2, please also cite:
     *
     *   K. Lee, E. D. Murray, L. Kong, B. I. Lundqvist, and
     *   D. C. Langreth, Phys. Rev. B 82, 081101(R) (2010).
     *
     *
     * If you are calculating the stress with vdW-DF, please also cite:
     *
     *   R. Sabatini, E. Kucukbenli, B. Kolb, T. Thonhauser, and
     *   S. de Gironcoli, J. Phys.: Condens. Matter 24, 424209 (2012).
     *
     ************************************************************************

     Carrying out vdW-DF run using the following parameters:

     Nqs =      20    Nr_points =    1024   r_max =   100.000
     q_mesh =
               0.00001000     0.04494208     0.09755937     0.15916263
               0.23128650     0.31572767     0.41458969     0.53033537
               0.66584808     0.82450364     1.01025438     1.22772762
               1.48234092     1.78043706     2.12944203     2.53805004
               3.01644009     3.57652955     4.23227104     5.00000000

     Gradients computed in reciprocal space

     ************************************************************************


     Starting wfc are  654 randomized atomic wfcs

     total cpu time spent up to now is      121.2 secs

     Self-consistent Calculation

     iteration #  1     ecut=    50.00 Ry     beta=0.70
     Davidson diagonalization with overlap
     ethr =  1.00E-02,  avg # of iterations =  3.0

     Threshold (ethr) on eigenvalues was too large:
     Diagonalizing with lowered threshold

     Davidson diagonalization with overlap
     ethr =  4.29E-04,  avg # of iterations =  2.5

     negative rho (up, down):  1.947E+00 0.000E+00

     total cpu time spent up to now is      587.9 secs

     total energy              =   -7423.00200549 Ry
     Harris-Foulkes estimate   =   -7426.09129272 Ry
     estimated scf accuracy    <       3.81077414 Ry

     iteration #  2     ecut=    50.00 Ry     beta=0.70
     Davidson diagonalization with overlap
     ethr =  4.76E-04,  avg # of iterations = 11.2

     negative rho (up, down):  1.941E+00 0.000E+00

     total cpu time spent up to now is     1336.1 secs

     total energy              =   -7414.64448985 Ry
     Harris-Foulkes estimate   =   -7432.75896744 Ry
     estimated scf accuracy    <      95.59258245 Ry

     iteration #  3     ecut=    50.00 Ry     beta=0.70
     Davidson diagonalization with overlap
     ethr =  4.76E-04,  avg # of iterations =  6.0

     negative rho (up, down):  1.951E+00 0.000E+00

     total cpu time spent up to now is     1816.7 secs

     total energy              =   -7424.07713106 Ry
     Harris-Foulkes estimate   =   -7425.89171657 Ry
     estimated scf accuracy    <       7.74105508 Ry

     iteration #  4     ecut=    50.00 Ry     beta=0.70
     Davidson diagonalization with overlap
     ethr =  4.76E-04,  avg # of iterations =  6.0

     negative rho (up, down):  1.955E+00 0.000E+00

     total cpu time spent up to now is     2101.7 secs

     total energy              =   -7424.91900501 Ry
     Harris-Foulkes estimate   =   -7425.58995411 Ry
     estimated scf accuracy    <       3.10296465 Ry

     iteration #  5     ecut=    50.00 Ry     beta=0.70
     Davidson diagonalization with overlap
     ethr =  3.88E-04,  avg # of iterations =  7.2

     negative rho (up, down):  1.962E+00 0.000E+00

     total cpu time spent up to now is     2380.2 secs

     total energy              =   -7425.01195468 Ry
     Harris-Foulkes estimate   =   -7425.63406128 Ry
     estimated scf accuracy    <       5.16694796 Ry

     iteration #  6     ecut=    50.00 Ry     beta=0.70
     Davidson diagonalization with overlap
     ethr =  3.88E-04,  avg # of iterations =  3.0

     negative rho (up, down):  1.967E+00 0.000E+00

     total cpu time spent up to now is     2610.8 secs

     total energy              =   -7425.28718825 Ry
     Harris-Foulkes estimate   =   -7425.32743117 Ry
     estimated scf accuracy    <       0.13559933 Ry

     iteration #  7     ecut=    50.00 Ry     beta=0.70
     Davidson diagonalization with overlap
     ethr =  1.69E-05,  avg # of iterations =  7.7

     negative rho (up, down):  1.969E+00 0.000E+00

     total cpu time spent up to now is     2946.3 secs

     total energy              =   -7425.28579669 Ry
     Harris-Foulkes estimate   =   -7425.32074962 Ry
     estimated scf accuracy    <       0.15729408 Ry

     iteration #  8     ecut=    50.00 Ry     beta=0.70
     Davidson diagonalization with overlap
     ethr =  1.69E-05,  avg # of iterations =  3.5

     negative rho (up, down):  1.971E+00 0.000E+00

     total cpu time spent up to now is     3196.1 secs

     total energy              =   -7425.29000312 Ry
     Harris-Foulkes estimate   =   -7425.30785080 Ry
     estimated scf accuracy    <       0.07629263 Ry

     iteration #  9     ecut=    50.00 Ry     beta=0.70
     Davidson diagonalization with overlap
     ethr =  9.54E-06,  avg # of iterations =  5.7

     negative rho (up, down):  1.972E+00 0.000E+00

     total cpu time spent up to now is     3464.8 secs

     total energy              =   -7425.29022387 Ry
     Harris-Foulkes estimate   =   -7425.30262071 Ry
     estimated scf accuracy    <       0.05023506 Ry

     iteration # 10     ecut=    50.00 Ry     beta=0.70
     Davidson diagonalization with overlap
     ethr =  6.28E-06,  avg # of iterations =  6.2

     negative rho (up, down):  1.973E+00 0.000E+00

     total cpu time spent up to now is     3735.4 secs

     total energy              =   -7425.29268799 Ry
     Harris-Foulkes estimate   =   -7425.29587101 Ry
     estimated scf accuracy    <       0.00982120 Ry

     iteration # 11     ecut=    50.00 Ry     beta=0.70
     Davidson diagonalization with overlap
     ethr =  1.23E-06,  avg # of iterations =  7.7

     negative rho (up, down):  1.974E+00 0.000E+00

     total cpu time spent up to now is     4035.1 secs

     total energy              =   -7425.29291156 Ry
     Harris-Foulkes estimate   =   -7425.29426426 Ry
     estimated scf accuracy    <       0.00501037 Ry

     iteration # 12     ecut=    50.00 Ry     beta=0.70
     Davidson diagonalization with overlap
     ethr =  6.26E-07,  avg # of iterations =  4.2

     negative rho (up, down):  1.975E+00 0.000E+00

     total cpu time spent up to now is     4287.2 secs

     total energy              =   -7425.29208361 Ry
     Harris-Foulkes estimate   =   -7425.29336383 Ry
     estimated scf accuracy    <       0.00175356 Ry

     iteration # 13     ecut=    50.00 Ry     beta=0.70
     Davidson diagonalization with overlap
     ethr =  2.19E-07,  avg # of iterations =  9.3

     negative rho (up, down):  1.974E+00 0.000E+00

     total cpu time spent up to now is     4747.2 secs

     total energy              =   -7425.29155225 Ry
     Harris-Foulkes estimate   =   -7425.29356981 Ry
     estimated scf accuracy    <       0.00839963 Ry

     iteration # 14     ecut=    50.00 Ry     beta=0.70
     Davidson diagonalization with overlap
     ethr =  2.19E-07,  avg # of iterations =  3.0

     negative rho (up, down):  1.974E+00 0.000E+00

     total cpu time spent up to now is     5071.2 secs

     total energy              =   -7425.29236285 Ry
     Harris-Foulkes estimate   =   -7425.29275118 Ry
     estimated scf accuracy    <       0.00171361 Ry

     iteration # 15     ecut=    50.00 Ry     beta=0.70
     Davidson diagonalization with overlap
     ethr =  2.14E-07,  avg # of iterations =  2.0

     negative rho (up, down):  1.974E+00 0.000E+00

     total cpu time spent up to now is     5297.7 secs

     total energy              =   -7425.29242604 Ry
     Harris-Foulkes estimate   =   -7425.29270693 Ry
     estimated scf accuracy    <       0.00157618 Ry

     iteration # 16     ecut=    50.00 Ry     beta=0.70
     Davidson diagonalization with overlap
     ethr =  1.97E-07,  avg # of iterations =  1.0

     negative rho (up, down):  1.974E+00 0.000E+00

     total cpu time spent up to now is     5506.6 secs

     total energy              =   -7425.29253027 Ry
     Harris-Foulkes estimate   =   -7425.29266320 Ry
     estimated scf accuracy    <       0.00106331 Ry

     iteration # 17     ecut=    50.00 Ry     beta=0.70
     Davidson diagonalization with overlap
     ethr =  1.33E-07,  avg # of iterations =  1.0

     negative rho (up, down):  1.974E+00 0.000E+00

     total cpu time spent up to now is     5726.7 secs

     total energy              =   -7425.29258971 Ry
     Harris-Foulkes estimate   =   -7425.29261122 Ry
     estimated scf accuracy    <       0.00006110 Ry

     iteration # 18     ecut=    50.00 Ry     beta=0.70
     Davidson diagonalization with overlap
     ethr =  7.64E-09,  avg # of iterations =  2.0

     negative rho (up, down):  1.974E+00 0.000E+00

     total cpu time spent up to now is     5962.5 secs

     total energy              =   -7425.29259745 Ry
     Harris-Foulkes estimate   =   -7425.29260585 Ry
     estimated scf accuracy    <       0.00003145 Ry

     iteration # 19     ecut=    50.00 Ry     beta=0.70
     Davidson diagonalization with overlap
     ethr =  3.93E-09,  avg # of iterations =  2.3

     negative rho (up, down):  1.974E+00 0.000E+00

     total cpu time spent up to now is     6187.5 secs

     total energy              =   -7425.29259844 Ry
     Harris-Foulkes estimate   =   -7425.29260665 Ry
     estimated scf accuracy    <       0.00004298 Ry

     iteration # 20     ecut=    50.00 Ry     beta=0.70
     Davidson diagonalization with overlap
     ethr =  3.93E-09,  avg # of iterations =  2.0

     negative rho (up, down):  1.974E+00 0.000E+00

     total cpu time spent up to now is     6403.8 secs

     total energy              =   -7425.29260186 Ry
     Harris-Foulkes estimate   =   -7425.29260386 Ry
     estimated scf accuracy    <       0.00000757 Ry

     iteration # 21     ecut=    50.00 Ry     beta=0.70
     Davidson diagonalization with overlap
     ethr =  9.47E-10,  avg # of iterations =  2.0

     negative rho (up, down):  1.974E+00 0.000E+00

     total cpu time spent up to now is     6638.6 secs

     total energy              =   -7425.29260287 Ry
     Harris-Foulkes estimate   =   -7425.29260347 Ry
     estimated scf accuracy    <       0.00000276 Ry

     iteration # 22     ecut=    50.00 Ry     beta=0.70
     Davidson diagonalization with overlap
     ethr =  3.45E-10,  avg # of iterations =  3.0

     negative rho (up, down):  1.974E+00 0.000E+00

     total cpu time spent up to now is     6885.9 secs

     total energy              =   -7425.29260340 Ry
     Harris-Foulkes estimate   =   -7425.29260347 Ry
     estimated scf accuracy    <       0.00000077 Ry

     iteration # 23     ecut=    50.00 Ry     beta=0.70
     Davidson diagonalization with overlap
     ethr =  9.59E-11,  avg # of iterations =  3.0

     negative rho (up, down):  1.974E+00 0.000E+00

     total cpu time spent up to now is     7128.2 secs

     total energy              =   -7425.29260351 Ry
     Harris-Foulkes estimate   =   -7425.29260354 Ry
     estimated scf accuracy    <       0.00000016 Ry

     iteration # 24     ecut=    50.00 Ry     beta=0.70
     Davidson diagonalization with overlap
     ethr =  2.04E-11,  avg # of iterations =  2.8

     negative rho (up, down):  1.974E+00 0.000E+00

     total cpu time spent up to now is     7382.2 secs

     total energy              =   -7425.29260357 Ry
     Harris-Foulkes estimate   =   -7425.29260358 Ry
     estimated scf accuracy    <       0.00000026 Ry

     iteration # 25     ecut=    50.00 Ry     beta=0.70
     Davidson diagonalization with overlap
     ethr =  2.04E-11,  avg # of iterations =  2.0

     negative rho (up, down):  1.974E+00 0.000E+00

     total cpu time spent up to now is     7600.2 secs

     total energy              =   -7425.29260360 Ry
     Harris-Foulkes estimate   =   -7425.29260361 Ry
     estimated scf accuracy    <       0.00000010 Ry

     iteration # 26     ecut=    50.00 Ry     beta=0.70
     Davidson diagonalization with overlap
     ethr =  1.29E-11,  avg # of iterations =  2.0

     negative rho (up, down):  1.974E+00 0.000E+00

     total cpu time spent up to now is     7824.2 secs

     total energy              =   -7425.29260361 Ry
     Harris-Foulkes estimate   =   -7425.29260365 Ry
     estimated scf accuracy    <       0.00000051 Ry

     iteration # 27     ecut=    50.00 Ry     beta=0.70
     Davidson diagonalization with overlap
     ethr =  1.29E-11,  avg # of iterations =  2.0

     negative rho (up, down):  1.974E+00 0.000E+00

     total cpu time spent up to now is     8052.8 secs

     total energy              =   -7425.29260365 Ry
     Harris-Foulkes estimate   =   -7425.29260364 Ry
     estimated scf accuracy    <       0.00000002 Ry

     iteration # 28     ecut=    50.00 Ry     beta=0.70
     Davidson diagonalization with overlap
     ethr =  2.92E-12,  avg # of iterations =  3.0

     negative rho (up, down):  1.974E+00 0.000E+00

     total cpu time spent up to now is     8298.1 secs

     total energy              =   -7425.29260366 Ry
     Harris-Foulkes estimate   =   -7425.29260366 Ry
     estimated scf accuracy    <       0.00000002 Ry

     iteration # 29     ecut=    50.00 Ry     beta=0.70
     Davidson diagonalization with overlap
     ethr =  2.23E-12,  avg # of iterations =  2.0

     negative rho (up, down):  1.974E+00 0.000E+00

     total cpu time spent up to now is     8515.1 secs

     End of self-consistent calculation

          k = 0.2500 0.2500 0.0833 (167653 PWs)   bands (ev):

   -19.4931  -7.3057  -6.7397  -6.2114  -6.2106  -5.7814  -5.3725  -5.2794
    -5.2787  -5.0831  -5.0831  -4.9657  -4.9648  -4.8867  -4.8638  -4.7907
    -4.7056  -4.7022  -4.6632  -4.6631  -4.5022  -4.4852  -4.4846  -4.4840
    -4.4776  -4.4216  -4.4215  -4.4099  -4.4093  -4.3726  -4.3603  -4.3595
    -4.3178  -4.3177  -4.2843  -4.2831  -4.2314  -4.2307  -4.2203  -4.2189
    -4.2139  -4.2006  -4.2006  -4.1590  -4.1412  -4.1409  -4.1343  -4.1340
    -4.1022  -4.0522  -4.0372  -4.0366  -4.0330  -4.0329  -4.0250  -4.0197
    -4.0191  -4.0190  -3.9544  -3.9537  -3.9043  -3.9038  -3.8917  -3.8656
    -3.8655  -3.8454  -3.8431  -3.8427  -3.8385  -3.8353  -3.7864  -3.7863
    -3.7734  -3.7728  -3.6684  -3.6682  -3.6620  -3.6616  -3.6245  -3.6140
    -3.6021  -3.5729  -3.5710  -3.5539  -3.5426  -3.5387  -3.5205  -3.5196
    -3.5070  -3.5060  -3.4519  -3.4515  -3.4325  -3.4184  -3.4060  -3.4049
    -3.4046  -3.4033  -3.3763  -3.3759  -3.3397  -3.3392  -3.3171  -3.3166
    -3.2843  -3.2839  -3.2656  -3.2382  -3.2381  -3.2009  -3.2005  -3.1652
    -3.1579  -3.1569  -3.1432  -3.1427  -3.1379  -3.1376  -3.0984  -3.0898
    -3.0482  -3.0482  -3.0404  -3.0310  -3.0301  -3.0284  -3.0044  -3.0043
    -2.9831  -2.9828  -2.9820  -2.9555  -2.9554  -2.9479  -2.9450  -2.9450
    -2.9094  -2.9042  -2.8696  -2.8689  -2.8683  -2.8654  -2.8653  -2.7863
    -2.7762  -2.7722  -2.7714  -2.7703  -2.7699  -2.7652  -2.7650  -2.7648
    -2.7641  -2.7551  -2.7473  -2.7302  -2.7276  -2.7273  -2.7262  -2.7122
    -2.7073  -2.6692  -2.6685  -2.6684  -2.6646  -2.6636  -2.6460  -2.6455
    -2.6367  -2.6367  -2.6345  -2.5750  -2.5749  -2.5695  -2.5694  -2.5644
    -2.5643  -2.5361  -2.4769  -2.4759  -2.4755  -2.4740  -2.4623  -2.4603
    -2.4552  -2.4443  -2.4440  -2.4076  -2.4067  -2.3985  -2.3976  -2.3972
    -2.3970  -2.3579  -2.3572  -2.3477  -2.3476  -2.3460  -2.3456  -2.3039
    -2.2877  -2.2826  -2.2292  -2.2288  -2.2103  -2.2090  -2.2036  -2.2033
    -2.1552  -2.1541  -2.1310  -2.1147  -2.1008  -2.0997  -2.0993  -2.0777
    -2.0774  -2.0678  -2.0511  -2.0097  -2.0090  -1.9968  -1.9967  -1.9958
    -1.9847  -1.9845  -1.9692  -1.9690  -1.9669  -1.9645  -1.9608  -1.9599
    -1.9584  -1.9471  -1.9466  -1.9292  -1.9287  -1.9267  -1.9207  -1.9177
    -1.9172  -1.8938  -1.8933  -1.8822  -1.8801  -1.8761  -1.8748  -1.8368
    -1.8035  -1.8025  -1.7675  -1.7505  -1.7500  -1.7395  -1.7394  -1.7161
    -1.7153  -1.7010  -1.7010  -1.6992  -1.6991  -1.6964  -1.6962  -1.6636
    -1.6633  -1.6629  -1.6172  -1.6166  -1.5771  -1.5769  -1.5304  -1.5296
    -1.5172  -1.5048  -1.4947  -1.4891  -1.4876  -1.4703  -1.4681  -1.4517
    -1.4510  -1.4467  -1.4465  -1.4447  -1.4440  -1.4433  -1.4401  -1.4213
    -1.4205  -1.4102  -1.3932  -1.3740  -1.3738  -1.3481  -1.3480  -1.3451
    -1.3444  -1.3418  -1.3381  -1.3167  -1.3164  -1.3020  -1.3005  -1.2884
    -1.2786  -1.2651  -1.2643  -1.2340  -1.2334  -1.2256  -1.2252  -1.1903
    -1.1895  -1.1818  -1.1811  -1.1730  -1.1724  -1.1513  -1.1508  -1.1390
    -1.1325  -1.1320  -1.1194  -1.1189  -1.1181  -1.1172  -1.1037  -1.0933
    -1.0925  -1.0853  -1.0851  -1.0731  -1.0685  -1.0678  -1.0616  -1.0226
    -1.0201  -1.0142  -1.0137  -1.0135  -1.0105  -0.9729  -0.9567  -0.9557
    -0.9555  -0.9549  -0.9504  -0.9503  -0.9457  -0.9320  -0.9312  -0.8942
    -0.8932  -0.8867  -0.8866  -0.8638  -0.8635  -0.8538  -0.8240  -0.8163
    -0.7892  -0.7885  -0.7609  -0.7607  -0.7577  -0.7569  -0.7561  -0.7525
    -0.7487  -0.7467  -0.7423  -0.7418  -0.7101  -0.7096  -0.6924  -0.6907
    -0.6864  -0.6862  -0.6847  -0.6833  -0.6657  -0.3876  -0.3814  -0.3253
    -0.3211  -0.2843  -0.1237  -0.0587  -0.0580  -0.0269   0.2605   0.2613
     0.5892   0.5930   0.6896   0.6899   0.7303   0.7319   0.8734   0.8759
     0.9988   1.0000   1.0865   1.6856   1.7040   1.7045   1.7446   1.7480
     1.7893   1.7971   1.8732   1.8756   2.0811   2.0819   2.3150   2.3946
     2.3990   2.4125   2.7897   2.7963   2.8664   2.8685   2.8739   2.8750
     3.0258   3.0266   3.0669   3.1676   3.1715   3.3973   3.4075   3.5361
     3.5627   3.5645   3.8333   3.8360   3.9459   3.9666   3.9668   4.0124
     4.0295   4.1528   4.1547   4.3900   4.3916   4.4726   4.4788   4.6002
     4.6029   4.6112   4.6242   4.6320   4.7925   5.4000   5.4033   5.4377
     5.5313   5.5353   5.5980   5.7042   5.7147   5.7162   5.7351   5.8279
     5.8283   5.8835   5.8843   5.9268   5.9630   6.0546   6.0734   6.1645
     6.1735   6.1895   6.1943   6.2098   6.2228   6.2257   6.2338   6.2384

          k = 0.2500 0.2500-0.2500 (167588 PWs)   bands (ev):

   -19.4931  -7.3057  -6.7397  -6.2114  -6.2106  -5.7814  -5.3725  -5.2794
    -5.2787  -5.0831  -5.0831  -4.9657  -4.9648  -4.8867  -4.8638  -4.7907
    -4.7056  -4.7022  -4.6632  -4.6631  -4.5022  -4.4852  -4.4846  -4.4840
    -4.4776  -4.4216  -4.4215  -4.4098  -4.4093  -4.3726  -4.3603  -4.3595
    -4.3178  -4.3177  -4.2843  -4.2831  -4.2314  -4.2307  -4.2203  -4.2189
    -4.2139  -4.2006  -4.2006  -4.1590  -4.1412  -4.1409  -4.1343  -4.1340
    -4.1022  -4.0522  -4.0372  -4.0366  -4.0330  -4.0329  -4.0250  -4.0197
    -4.0191  -4.0190  -3.9544  -3.9537  -3.9043  -3.9038  -3.8917  -3.8656
    -3.8655  -3.8454  -3.8431  -3.8427  -3.8385  -3.8353  -3.7864  -3.7863
    -3.7734  -3.7728  -3.6684  -3.6682  -3.6620  -3.6616  -3.6245  -3.6140
    -3.6021  -3.5729  -3.5710  -3.5539  -3.5426  -3.5387  -3.5205  -3.5196
    -3.5070  -3.5060  -3.4519  -3.4515  -3.4325  -3.4184  -3.4060  -3.4049
    -3.4046  -3.4033  -3.3763  -3.3759  -3.3397  -3.3392  -3.3171  -3.3166
    -3.2843  -3.2839  -3.2656  -3.2382  -3.2381  -3.2009  -3.2005  -3.1652
    -3.1579  -3.1569  -3.1432  -3.1427  -3.1379  -3.1376  -3.0984  -3.0898
    -3.0482  -3.0482  -3.0404  -3.0310  -3.0301  -3.0284  -3.0044  -3.0043
    -2.9831  -2.9828  -2.9820  -2.9554  -2.9554  -2.9479  -2.9450  -2.9450
    -2.9094  -2.9042  -2.8696  -2.8689  -2.8683  -2.8654  -2.8653  -2.7863
    -2.7762  -2.7722  -2.7714  -2.7704  -2.7699  -2.7652  -2.7650  -2.7648
    -2.7640  -2.7551  -2.7473  -2.7302  -2.7276  -2.7273  -2.7262  -2.7122
    -2.7073  -2.6692  -2.6685  -2.6683  -2.6646  -2.6636  -2.6460  -2.6455
    -2.6367  -2.6367  -2.6345  -2.5750  -2.5749  -2.5695  -2.5694  -2.5644
    -2.5643  -2.5361  -2.4769  -2.4759  -2.4755  -2.4740  -2.4623  -2.4603
    -2.4552  -2.4443  -2.4440  -2.4076  -2.4067  -2.3985  -2.3976  -2.3972
    -2.3970  -2.3579  -2.3572  -2.3477  -2.3476  -2.3460  -2.3457  -2.3039
    -2.2877  -2.2826  -2.2292  -2.2288  -2.2103  -2.2090  -2.2036  -2.2033
    -2.1552  -2.1540  -2.1310  -2.1147  -2.1008  -2.0997  -2.0993  -2.0777
    -2.0774  -2.0678  -2.0511  -2.0097  -2.0090  -1.9968  -1.9967  -1.9958
    -1.9847  -1.9845  -1.9692  -1.9690  -1.9669  -1.9645  -1.9608  -1.9599
    -1.9584  -1.9471  -1.9466  -1.9292  -1.9287  -1.9267  -1.9207  -1.9177
    -1.9172  -1.8938  -1.8933  -1.8822  -1.8801  -1.8761  -1.8748  -1.8368
    -1.8035  -1.8025  -1.7675  -1.7504  -1.7500  -1.7395  -1.7394  -1.7161
    -1.7153  -1.7010  -1.7010  -1.6992  -1.6991  -1.6963  -1.6962  -1.6636
    -1.6633  -1.6629  -1.6172  -1.6166  -1.5771  -1.5769  -1.5304  -1.5296
    -1.5172  -1.5048  -1.4947  -1.4891  -1.4876  -1.4703  -1.4681  -1.4517
    -1.4510  -1.4467  -1.4465  -1.4447  -1.4440  -1.4433  -1.4401  -1.4213
    -1.4205  -1.4102  -1.3932  -1.3740  -1.3738  -1.3481  -1.3480  -1.3450
    -1.3444  -1.3418  -1.3381  -1.3167  -1.3164  -1.3020  -1.3005  -1.2884
    -1.2786  -1.2651  -1.2643  -1.2340  -1.2334  -1.2256  -1.2252  -1.1903
    -1.1895  -1.1818  -1.1811  -1.1730  -1.1724  -1.1513  -1.1508  -1.1390
    -1.1325  -1.1320  -1.1194  -1.1189  -1.1181  -1.1172  -1.1037  -1.0933
    -1.0925  -1.0853  -1.0851  -1.0731  -1.0685  -1.0678  -1.0616  -1.0226
    -1.0201  -1.0142  -1.0137  -1.0135  -1.0105  -0.9729  -0.9567  -0.9557
    -0.9555  -0.9549  -0.9504  -0.9503  -0.9457  -0.9320  -0.9312  -0.8942
    -0.8932  -0.8867  -0.8866  -0.8638  -0.8635  -0.8538  -0.8240  -0.8163
    -0.7892  -0.7885  -0.7609  -0.7607  -0.7577  -0.7569  -0.7561  -0.7525
    -0.7487  -0.7467  -0.7423  -0.7418  -0.7101  -0.7096  -0.6924  -0.6907
    -0.6864  -0.6862  -0.6847  -0.6833  -0.6657  -0.3876  -0.3814  -0.3253
    -0.3211  -0.2843  -0.1237  -0.0587  -0.0580  -0.0269   0.2605   0.2613
     0.5892   0.5930   0.6896   0.6899   0.7303   0.7319   0.8734   0.8759
     0.9988   1.0000   1.0865   1.6856   1.7040   1.7045   1.7446   1.7480
     1.7893   1.7971   1.8732   1.8756   2.0811   2.0819   2.3150   2.3946
     2.3990   2.4125   2.7897   2.7963   2.8664   2.8685   2.8739   2.8750
     3.0258   3.0265   3.0669   3.1676   3.1715   3.3973   3.4075   3.5361
     3.5627   3.5645   3.8333   3.8360   3.9459   3.9666   3.9668   4.0126
     4.0295   4.1528   4.1547   4.3900   4.3916   4.4726   4.4788   4.5990
     4.6028   4.6106   4.6242   4.6320   4.7919   5.3999   5.4035   5.4104
     5.5313   5.5351   5.6725   5.6877   5.7141   5.7165   5.7347   5.8278
     5.8283   5.8835   5.8843   5.9269   5.9867   6.0283   6.1145   6.1553
     6.1807   6.1941   6.2096   6.2186   6.2230   6.2260   6.2338   6.2429

          k =-0.2500-0.2500 0.0833 (167653 PWs)   bands (ev):

   -19.4931  -7.3057  -6.7397  -6.2114  -6.2106  -5.7814  -5.3725  -5.2794
    -5.2787  -5.0831  -5.0831  -4.9657  -4.9648  -4.8867  -4.8638  -4.7907
    -4.7056  -4.7022  -4.6632  -4.6631  -4.5022  -4.4852  -4.4846  -4.4840
    -4.4776  -4.4216  -4.4215  -4.4099  -4.4093  -4.3726  -4.3603  -4.3595
    -4.3178  -4.3177  -4.2843  -4.2831  -4.2314  -4.2307  -4.2203  -4.2189
    -4.2139  -4.2006  -4.2006  -4.1590  -4.1412  -4.1409  -4.1343  -4.1340
    -4.1022  -4.0522  -4.0372  -4.0366  -4.0330  -4.0329  -4.0250  -4.0197
    -4.0191  -4.0190  -3.9544  -3.9537  -3.9043  -3.9038  -3.8917  -3.8656
    -3.8655  -3.8454  -3.8431  -3.8427  -3.8385  -3.8353  -3.7864  -3.7863
    -3.7734  -3.7728  -3.6684  -3.6682  -3.6620  -3.6616  -3.6245  -3.6140
    -3.6021  -3.5729  -3.5710  -3.5539  -3.5426  -3.5387  -3.5205  -3.5196
    -3.5070  -3.5060  -3.4519  -3.4515  -3.4325  -3.4184  -3.4060  -3.4049
    -3.4046  -3.4033  -3.3763  -3.3759  -3.3397  -3.3392  -3.3171  -3.3166
    -3.2843  -3.2839  -3.2656  -3.2382  -3.2381  -3.2009  -3.2005  -3.1652
    -3.1579  -3.1569  -3.1432  -3.1427  -3.1379  -3.1376  -3.0984  -3.0898
    -3.0482  -3.0482  -3.0404  -3.0310  -3.0301  -3.0284  -3.0044  -3.0043
    -2.9831  -2.9828  -2.9820  -2.9555  -2.9554  -2.9479  -2.9450  -2.9450
    -2.9094  -2.9042  -2.8696  -2.8689  -2.8683  -2.8654  -2.8653  -2.7863
    -2.7762  -2.7722  -2.7714  -2.7703  -2.7699  -2.7652  -2.7650  -2.7648
    -2.7641  -2.7551  -2.7473  -2.7302  -2.7276  -2.7273  -2.7262  -2.7122
    -2.7073  -2.6692  -2.6685  -2.6684  -2.6646  -2.6636  -2.6460  -2.6455
    -2.6367  -2.6367  -2.6345  -2.5750  -2.5749  -2.5695  -2.5694  -2.5644
    -2.5643  -2.5361  -2.4769  -2.4759  -2.4755  -2.4740  -2.4623  -2.4603
    -2.4552  -2.4443  -2.4440  -2.4076  -2.4067  -2.3985  -2.3976  -2.3972
    -2.3970  -2.3579  -2.3572  -2.3477  -2.3476  -2.3460  -2.3456  -2.3039
    -2.2877  -2.2826  -2.2292  -2.2288  -2.2103  -2.2090  -2.2036  -2.2033
    -2.1552  -2.1541  -2.1310  -2.1147  -2.1008  -2.0997  -2.0993  -2.0777
    -2.0774  -2.0678  -2.0511  -2.0097  -2.0090  -1.9968  -1.9967  -1.9958
    -1.9847  -1.9845  -1.9692  -1.9690  -1.9669  -1.9645  -1.9608  -1.9599
    -1.9584  -1.9471  -1.9466  -1.9292  -1.9287  -1.9267  -1.9207  -1.9177
    -1.9172  -1.8938  -1.8933  -1.8822  -1.8801  -1.8761  -1.8748  -1.8368
    -1.8035  -1.8025  -1.7675  -1.7505  -1.7500  -1.7395  -1.7394  -1.7161
    -1.7153  -1.7010  -1.7010  -1.6992  -1.6991  -1.6964  -1.6962  -1.6636
    -1.6633  -1.6629  -1.6172  -1.6166  -1.5771  -1.5769  -1.5304  -1.5296
    -1.5172  -1.5048  -1.4947  -1.4891  -1.4876  -1.4703  -1.4681  -1.4517
    -1.4510  -1.4467  -1.4465  -1.4447  -1.4440  -1.4433  -1.4401  -1.4213
    -1.4205  -1.4102  -1.3932  -1.3740  -1.3738  -1.3481  -1.3480  -1.3451
    -1.3444  -1.3418  -1.3381  -1.3167  -1.3164  -1.3020  -1.3005  -1.2884
    -1.2786  -1.2651  -1.2643  -1.2340  -1.2334  -1.2256  -1.2252  -1.1903
    -1.1895  -1.1818  -1.1811  -1.1730  -1.1724  -1.1513  -1.1508  -1.1390
    -1.1325  -1.1320  -1.1194  -1.1189  -1.1181  -1.1172  -1.1037  -1.0933
    -1.0925  -1.0853  -1.0851  -1.0731  -1.0685  -1.0678  -1.0616  -1.0226
    -1.0201  -1.0142  -1.0137  -1.0135  -1.0105  -0.9729  -0.9567  -0.9557
    -0.9555  -0.9549  -0.9504  -0.9503  -0.9457  -0.9320  -0.9312  -0.8942
    -0.8932  -0.8867  -0.8866  -0.8638  -0.8635  -0.8538  -0.8240  -0.8163
    -0.7892  -0.7885  -0.7609  -0.7607  -0.7577  -0.7569  -0.7561  -0.7525
    -0.7487  -0.7467  -0.7423  -0.7418  -0.7101  -0.7096  -0.6924  -0.6907
    -0.6864  -0.6862  -0.6847  -0.6833  -0.6657  -0.3876  -0.3814  -0.3253
    -0.3211  -0.2843  -0.1237  -0.0587  -0.0580  -0.0269   0.2605   0.2613
     0.5892   0.5930   0.6896   0.6899   0.7303   0.7319   0.8734   0.8759
     0.9988   1.0000   1.0865   1.6856   1.7040   1.7045   1.7446   1.7480
     1.7893   1.7971   1.8732   1.8756   2.0811   2.0819   2.3150   2.3946
     2.3990   2.4125   2.7897   2.7963   2.8664   2.8685   2.8739   2.8750
     3.0258   3.0266   3.0669   3.1676   3.1715   3.3973   3.4075   3.5361
     3.5627   3.5645   3.8333   3.8360   3.9459   3.9666   3.9668   4.0124
     4.0295   4.1528   4.1547   4.3900   4.3916   4.4726   4.4788   4.6002
     4.6029   4.6112   4.6242   4.6320   4.7924   5.4001   5.4034   5.4371
     5.5313   5.5353   5.5993   5.7042   5.7147   5.7162   5.7350   5.8278
     5.8283   5.8835   5.8843   5.9268   5.9630   6.0541   6.0702   6.1645
     6.1734   6.1908   6.1958   6.2098   6.2228   6.2257   6.2338   6.2384

          k =-0.2500 0.2500-0.0833 (167653 PWs)   bands (ev):

   -19.4931  -7.3057  -6.7397  -6.2116  -6.2103  -5.7814  -5.3726  -5.2797
    -5.2785  -5.0831  -5.0831  -4.9662  -4.9644  -4.8867  -4.8638  -4.7907
    -4.7056  -4.7022  -4.6633  -4.6630  -4.5022  -4.4852  -4.4848  -4.4837
    -4.4776  -4.4216  -4.4215  -4.4101  -4.4090  -4.3726  -4.3607  -4.3592
    -4.3179  -4.3177  -4.2843  -4.2831  -4.2317  -4.2303  -4.2203  -4.2189
    -4.2139  -4.2006  -4.2005  -4.1591  -4.1414  -4.1407  -4.1345  -4.1339
    -4.1022  -4.0522  -4.0374  -4.0364  -4.0333  -4.0326  -4.0250  -4.0197
    -4.0191  -4.0189  -3.9548  -3.9533  -3.9046  -3.9036  -3.8917  -3.8656
    -3.8654  -3.8454  -3.8431  -3.8427  -3.8385  -3.8352  -3.7864  -3.7863
    -3.7736  -3.7726  -3.6685  -3.6681  -3.6623  -3.6612  -3.6245  -3.6140
    -3.6021  -3.5729  -3.5710  -3.5538  -3.5428  -3.5386  -3.5207  -3.5195
    -3.5073  -3.5058  -3.4521  -3.4513  -3.4325  -3.4184  -3.4060  -3.4050
    -3.4045  -3.4033  -3.3764  -3.3758  -3.3397  -3.3392  -3.3172  -3.3165
    -3.2845  -3.2838  -3.2656  -3.2383  -3.2380  -3.2011  -3.2004  -3.1652
    -3.1579  -3.1569  -3.1434  -3.1425  -3.1380  -3.1375  -3.0984  -3.0898
    -3.0482  -3.0482  -3.0404  -3.0307  -3.0304  -3.0283  -3.0044  -3.0043
    -2.9834  -2.9830  -2.9816  -2.9555  -2.9554  -2.9479  -2.9451  -2.9450
    -2.9094  -2.9042  -2.8698  -2.8687  -2.8683  -2.8654  -2.8652  -2.7863
    -2.7762  -2.7725  -2.7711  -2.7705  -2.7697  -2.7653  -2.7651  -2.7650
    -2.7638  -2.7551  -2.7473  -2.7302  -2.7276  -2.7274  -2.7260  -2.7121
    -2.7073  -2.6691  -2.6687  -2.6682  -2.6649  -2.6633  -2.6462  -2.6453
    -2.6367  -2.6367  -2.6345  -2.5750  -2.5748  -2.5696  -2.5694  -2.5643
    -2.5643  -2.5361  -2.4768  -2.4761  -2.4753  -2.4740  -2.4623  -2.4603
    -2.4552  -2.4444  -2.4439  -2.4080  -2.4062  -2.3990  -2.3978  -2.3970
    -2.3969  -2.3581  -2.3570  -2.3478  -2.3476  -2.3462  -2.3456  -2.3038
    -2.2877  -2.2827  -2.2293  -2.2286  -2.2103  -2.2090  -2.2036  -2.2033
    -2.1556  -2.1536  -2.1310  -2.1147  -2.1008  -2.0996  -2.0994  -2.0778
    -2.0773  -2.0678  -2.0511  -2.0100  -2.0087  -1.9969  -1.9969  -1.9953
    -1.9848  -1.9843  -1.9693  -1.9687  -1.9672  -1.9645  -1.9611  -1.9602
    -1.9576  -1.9473  -1.9463  -1.9293  -1.9286  -1.9267  -1.9207  -1.9179
    -1.9170  -1.8941  -1.8931  -1.8823  -1.8801  -1.8764  -1.8745  -1.8368
    -1.8038  -1.8021  -1.7675  -1.7506  -1.7498  -1.7398  -1.7388  -1.7163
    -1.7156  -1.7012  -1.7004  -1.6992  -1.6991  -1.6965  -1.6955  -1.6638
    -1.6633  -1.6627  -1.6174  -1.6165  -1.5776  -1.5764  -1.5313  -1.5299
    -1.5183  -1.5032  -1.4948  -1.4888  -1.4877  -1.4697  -1.4693  -1.4521
    -1.4500  -1.4470  -1.4461  -1.4450  -1.4434  -1.4424  -1.4413  -1.4212
    -1.4209  -1.4101  -1.3933  -1.3741  -1.3739  -1.3483  -1.3479  -1.3454
    -1.3442  -1.3409  -1.3379  -1.3173  -1.3160  -1.3028  -1.2998  -1.2882
    -1.2786  -1.2655  -1.2639  -1.2341  -1.2333  -1.2258  -1.2251  -1.1909
    -1.1889  -1.1821  -1.1808  -1.1732  -1.1723  -1.1515  -1.1506  -1.1390
    -1.1327  -1.1318  -1.1196  -1.1191  -1.1180  -1.1168  -1.1037  -1.0931
    -1.0926  -1.0855  -1.0850  -1.0730  -1.0690  -1.0676  -1.0616  -1.0227
    -1.0197  -1.0142  -1.0137  -1.0137  -1.0105  -0.9729  -0.9573  -0.9556
    -0.9553  -0.9547  -0.9509  -0.9501  -0.9457  -0.9319  -0.9312  -0.8946
    -0.8928  -0.8867  -0.8865  -0.8639  -0.8634  -0.8538  -0.8240  -0.8163
    -0.7894  -0.7883  -0.7610  -0.7606  -0.7577  -0.7569  -0.7561  -0.7525
    -0.7486  -0.7467  -0.7424  -0.7416  -0.7103  -0.7094  -0.6930  -0.6903
    -0.6866  -0.6859  -0.6852  -0.6829  -0.6657  -0.3876  -0.3814  -0.3266
    -0.3198  -0.2843  -0.1235  -0.0590  -0.0577  -0.0268   0.2600   0.2617
     0.5879   0.5943   0.6894   0.6901   0.7297   0.7326   0.8722   0.8769
     0.9988   1.0000   1.0867   1.6858   1.7040   1.7045   1.7443   1.7480
     1.7861   1.8000   1.8722   1.8767   2.0807   2.0824   2.3150   2.3932
     2.4003   2.4126   2.7871   2.7984   2.8663   2.8687   2.8735   2.8754
     3.0259   3.0265   3.0658   3.1653   3.1751   3.3973   3.4084   3.5360
     3.5619   3.5653   3.8319   3.8375   3.9465   3.9664   3.9673   4.0200
     4.0238   4.1521   4.1556   4.3900   4.3918   4.4773   4.4785   4.5719
     4.6025   4.6085   4.6213   4.6368   4.8153   5.3827   5.4150   5.4794
     5.5234   5.5404   5.6023   5.6403   5.7128   5.7177   5.7383   5.8271
     5.8291   5.8829   5.8851   5.9278   5.9682   5.9959   6.1353   6.1484
     6.1731   6.1978   6.2092   6.2210   6.2245   6.2283   6.2320   6.2340

          k = 0.2500-0.2500-0.0833 (167653 PWs)   bands (ev):

   -19.4931  -7.3057  -6.7397  -6.2116  -6.2103  -5.7814  -5.3726  -5.2797
    -5.2785  -5.0831  -5.0831  -4.9662  -4.9644  -4.8867  -4.8638  -4.7907
    -4.7056  -4.7022  -4.6633  -4.6630  -4.5022  -4.4852  -4.4848  -4.4837
    -4.4776  -4.4216  -4.4215  -4.4101  -4.4090  -4.3726  -4.3607  -4.3592
    -4.3179  -4.3177  -4.2843  -4.2831  -4.2317  -4.2303  -4.2203  -4.2189
    -4.2139  -4.2006  -4.2005  -4.1591  -4.1414  -4.1407  -4.1345  -4.1339
    -4.1022  -4.0522  -4.0374  -4.0364  -4.0333  -4.0326  -4.0250  -4.0197
    -4.0191  -4.0189  -3.9548  -3.9533  -3.9046  -3.9036  -3.8917  -3.8656
    -3.8654  -3.8454  -3.8431  -3.8427  -3.8385  -3.8352  -3.7864  -3.7863
    -3.7736  -3.7726  -3.6685  -3.6681  -3.6623  -3.6612  -3.6245  -3.6140
    -3.6021  -3.5729  -3.5710  -3.5538  -3.5428  -3.5386  -3.5207  -3.5195
    -3.5073  -3.5058  -3.4521  -3.4513  -3.4325  -3.4184  -3.4060  -3.4050
    -3.4045  -3.4033  -3.3764  -3.3758  -3.3397  -3.3392  -3.3172  -3.3165
    -3.2845  -3.2838  -3.2656  -3.2383  -3.2380  -3.2011  -3.2004  -3.1652
    -3.1579  -3.1569  -3.1434  -3.1425  -3.1380  -3.1375  -3.0984  -3.0898
    -3.0482  -3.0482  -3.0404  -3.0307  -3.0304  -3.0283  -3.0044  -3.0043
    -2.9834  -2.9830  -2.9816  -2.9555  -2.9554  -2.9479  -2.9451  -2.9450
    -2.9094  -2.9042  -2.8698  -2.8687  -2.8683  -2.8654  -2.8652  -2.7863
    -2.7762  -2.7725  -2.7711  -2.7705  -2.7697  -2.7653  -2.7651  -2.7650
    -2.7638  -2.7551  -2.7473  -2.7302  -2.7276  -2.7274  -2.7260  -2.7121
    -2.7073  -2.6691  -2.6687  -2.6682  -2.6649  -2.6633  -2.6462  -2.6453
    -2.6367  -2.6367  -2.6345  -2.5750  -2.5748  -2.5696  -2.5694  -2.5643
    -2.5643  -2.5361  -2.4768  -2.4761  -2.4753  -2.4740  -2.4623  -2.4603
    -2.4552  -2.4444  -2.4439  -2.4080  -2.4062  -2.3990  -2.3978  -2.3970
    -2.3969  -2.3581  -2.3570  -2.3478  -2.3476  -2.3462  -2.3456  -2.3038
    -2.2877  -2.2827  -2.2293  -2.2286  -2.2103  -2.2090  -2.2036  -2.2033
    -2.1556  -2.1536  -2.1310  -2.1147  -2.1008  -2.0996  -2.0994  -2.0778
    -2.0773  -2.0678  -2.0511  -2.0100  -2.0087  -1.9969  -1.9969  -1.9953
    -1.9848  -1.9843  -1.9693  -1.9687  -1.9672  -1.9645  -1.9611  -1.9602
    -1.9576  -1.9473  -1.9463  -1.9293  -1.9286  -1.9267  -1.9207  -1.9179
    -1.9170  -1.8941  -1.8931  -1.8823  -1.8801  -1.8764  -1.8745  -1.8368
    -1.8038  -1.8021  -1.7675  -1.7506  -1.7498  -1.7398  -1.7388  -1.7163
    -1.7156  -1.7012  -1.7004  -1.6992  -1.6991  -1.6965  -1.6955  -1.6638
    -1.6633  -1.6627  -1.6174  -1.6165  -1.5776  -1.5764  -1.5313  -1.5299
    -1.5183  -1.5032  -1.4948  -1.4888  -1.4877  -1.4697  -1.4693  -1.4521
    -1.4500  -1.4470  -1.4461  -1.4450  -1.4434  -1.4424  -1.4413  -1.4212
    -1.4209  -1.4101  -1.3933  -1.3741  -1.3739  -1.3483  -1.3479  -1.3454
    -1.3442  -1.3409  -1.3379  -1.3173  -1.3160  -1.3028  -1.2998  -1.2882
    -1.2786  -1.2655  -1.2639  -1.2341  -1.2333  -1.2258  -1.2251  -1.1909
    -1.1889  -1.1821  -1.1808  -1.1732  -1.1723  -1.1515  -1.1506  -1.1390
    -1.1327  -1.1318  -1.1196  -1.1191  -1.1180  -1.1168  -1.1037  -1.0931
    -1.0926  -1.0855  -1.0850  -1.0730  -1.0690  -1.0676  -1.0616  -1.0227
    -1.0197  -1.0142  -1.0137  -1.0137  -1.0105  -0.9729  -0.9573  -0.9556
    -0.9553  -0.9547  -0.9509  -0.9501  -0.9457  -0.9319  -0.9312  -0.8946
    -0.8928  -0.8867  -0.8865  -0.8639  -0.8634  -0.8538  -0.8240  -0.8163
    -0.7894  -0.7883  -0.7610  -0.7606  -0.7577  -0.7569  -0.7561  -0.7525
    -0.7486  -0.7467  -0.7424  -0.7416  -0.7103  -0.7094  -0.6930  -0.6903
    -0.6866  -0.6859  -0.6852  -0.6829  -0.6657  -0.3876  -0.3814  -0.3266
    -0.3198  -0.2843  -0.1235  -0.0590  -0.0577  -0.0268   0.2600   0.2617
     0.5879   0.5943   0.6894   0.6901   0.7297   0.7326   0.8722   0.8769
     0.9988   1.0000   1.0867   1.6858   1.7040   1.7045   1.7443   1.7480
     1.7861   1.8000   1.8722   1.8767   2.0807   2.0824   2.3150   2.3932
     2.4003   2.4126   2.7871   2.7984   2.8663   2.8687   2.8735   2.8754
     3.0259   3.0265   3.0658   3.1653   3.1751   3.3973   3.4084   3.5360
     3.5619   3.5653   3.8319   3.8375   3.9465   3.9664   3.9673   4.0200
     4.0238   4.1521   4.1556   4.3900   4.3918   4.4773   4.4785   4.5719
     4.6025   4.6085   4.6213   4.6368   4.8153   5.3827   5.4150   5.4793
     5.5234   5.5404   5.6028   5.6399   5.7128   5.7177   5.7383   5.8271
     5.8291   5.8829   5.8851   5.9278   5.9682   5.9958   6.1346   6.1489
     6.1732   6.1979   6.2091   6.2210   6.2245   6.2284   6.2318   6.2340

          k =-0.2500 0.2500 0.2500 (167588 PWs)   bands (ev):

   -19.4931  -7.3057  -6.7397  -6.2116  -6.2103  -5.7814  -5.3726  -5.2797
    -5.2785  -5.0831  -5.0831  -4.9662  -4.9644  -4.8867  -4.8638  -4.7907
    -4.7056  -4.7022  -4.6633  -4.6630  -4.5022  -4.4852  -4.4848  -4.4837
    -4.4776  -4.4216  -4.4215  -4.4101  -4.4090  -4.3726  -4.3607  -4.3592
    -4.3179  -4.3177  -4.2843  -4.2831  -4.2317  -4.2303  -4.2203  -4.2189
    -4.2139  -4.2006  -4.2005  -4.1591  -4.1414  -4.1407  -4.1345  -4.1339
    -4.1022  -4.0522  -4.0374  -4.0364  -4.0333  -4.0326  -4.0250  -4.0197
    -4.0191  -4.0189  -3.9548  -3.9533  -3.9046  -3.9036  -3.8918  -3.8656
    -3.8654  -3.8454  -3.8431  -3.8427  -3.8385  -3.8353  -3.7864  -3.7863
    -3.7736  -3.7726  -3.6685  -3.6681  -3.6623  -3.6612  -3.6245  -3.6140
    -3.6021  -3.5729  -3.5710  -3.5538  -3.5428  -3.5385  -3.5207  -3.5195
    -3.5073  -3.5058  -3.4521  -3.4513  -3.4325  -3.4184  -3.4060  -3.4049
    -3.4045  -3.4033  -3.3764  -3.3758  -3.3397  -3.3392  -3.3172  -3.3165
    -3.2844  -3.2838  -3.2656  -3.2383  -3.2380  -3.2011  -3.2004  -3.1652
    -3.1579  -3.1569  -3.1434  -3.1425  -3.1380  -3.1375  -3.0984  -3.0898
    -3.0482  -3.0482  -3.0404  -3.0307  -3.0304  -3.0283  -3.0044  -3.0043
    -2.9834  -2.9830  -2.9816  -2.9554  -2.9554  -2.9479  -2.9451  -2.9450
    -2.9094  -2.9042  -2.8698  -2.8687  -2.8683  -2.8654  -2.8652  -2.7863
    -2.7762  -2.7725  -2.7711  -2.7705  -2.7697  -2.7653  -2.7651  -2.7650
    -2.7638  -2.7551  -2.7473  -2.7302  -2.7276  -2.7274  -2.7260  -2.7121
    -2.7073  -2.6691  -2.6687  -2.6682  -2.6649  -2.6633  -2.6462  -2.6453
    -2.6367  -2.6367  -2.6345  -2.5750  -2.5748  -2.5696  -2.5694  -2.5643
    -2.5643  -2.5361  -2.4768  -2.4761  -2.4753  -2.4740  -2.4623  -2.4603
    -2.4552  -2.4444  -2.4438  -2.4080  -2.4062  -2.3990  -2.3978  -2.3970
    -2.3969  -2.3581  -2.3571  -2.3478  -2.3476  -2.3462  -2.3456  -2.3038
    -2.2877  -2.2827  -2.2293  -2.2286  -2.2103  -2.2090  -2.2036  -2.2033
    -2.1556  -2.1536  -2.1310  -2.1147  -2.1008  -2.0996  -2.0994  -2.0778
    -2.0773  -2.0678  -2.0511  -2.0100  -2.0087  -1.9969  -1.9969  -1.9953
    -1.9848  -1.9843  -1.9693  -1.9687  -1.9672  -1.9645  -1.9611  -1.9602
    -1.9576  -1.9473  -1.9463  -1.9293  -1.9286  -1.9267  -1.9207  -1.9179
    -1.9170  -1.8941  -1.8931  -1.8823  -1.8801  -1.8764  -1.8745  -1.8369
    -1.8038  -1.8021  -1.7675  -1.7506  -1.7498  -1.7398  -1.7388  -1.7162
    -1.7156  -1.7012  -1.7004  -1.6992  -1.6991  -1.6965  -1.6955  -1.6638
    -1.6633  -1.6627  -1.6174  -1.6165  -1.5776  -1.5764  -1.5313  -1.5299
    -1.5183  -1.5032  -1.4948  -1.4888  -1.4877  -1.4697  -1.4693  -1.4521
    -1.4500  -1.4470  -1.4461  -1.4450  -1.4434  -1.4424  -1.4413  -1.4212
    -1.4209  -1.4101  -1.3933  -1.3741  -1.3739  -1.3483  -1.3479  -1.3454
    -1.3441  -1.3409  -1.3379  -1.3173  -1.3160  -1.3028  -1.2998  -1.2882
    -1.2786  -1.2655  -1.2639  -1.2341  -1.2333  -1.2257  -1.2251  -1.1909
    -1.1889  -1.1821  -1.1808  -1.1732  -1.1723  -1.1515  -1.1506  -1.1390
    -1.1327  -1.1318  -1.1196  -1.1191  -1.1180  -1.1168  -1.1037  -1.0931
    -1.0926  -1.0855  -1.0850  -1.0730  -1.0690  -1.0676  -1.0616  -1.0227
    -1.0197  -1.0142  -1.0138  -1.0137  -1.0105  -0.9729  -0.9573  -0.9556
    -0.9553  -0.9547  -0.9509  -0.9501  -0.9457  -0.9319  -0.9312  -0.8946
    -0.8928  -0.8867  -0.8865  -0.8639  -0.8634  -0.8538  -0.8240  -0.8163
    -0.7894  -0.7883  -0.7610  -0.7606  -0.7577  -0.7569  -0.7561  -0.7525
    -0.7486  -0.7467  -0.7424  -0.7416  -0.7103  -0.7094  -0.6930  -0.6903
    -0.6866  -0.6859  -0.6852  -0.6829  -0.6657  -0.3876  -0.3814  -0.3266
    -0.3198  -0.2843  -0.1235  -0.0590  -0.0577  -0.0268   0.2600   0.2617
     0.5879   0.5943   0.6894   0.6901   0.7297   0.7326   0.8722   0.8769
     0.9988   1.0000   1.0867   1.6858   1.7040   1.7045   1.7443   1.7480
     1.7861   1.8000   1.8722   1.8767   2.0807   2.0824   2.3150   2.3932
     2.4003   2.4126   2.7871   2.7984   2.8663   2.8687   2.8735   2.8754
     3.0259   3.0265   3.0658   3.1654   3.1752   3.3973   3.4084   3.5360
     3.5619   3.5653   3.8319   3.8375   3.9465   3.9664   3.9673   4.0201
     4.0240   4.1521   4.1556   4.3899   4.3918   4.4773   4.4785   4.5705
     4.6025   4.6085   4.6213   4.6367   4.8143   5.3828   5.4060   5.4666
     5.5223   5.5399   5.5850   5.7128   5.7175   5.7288   5.7330   5.8270
     5.8293   5.8829   5.8851   5.9279   5.9843   6.0378   6.0616   6.1791
     6.1892   6.1948   6.2093   6.2210   6.2279   6.2335   6.2379   6.2396

     the Fermi energy is     0.9489 ev

!    total energy              =   -7425.29260368 Ry
     Harris-Foulkes estimate   =   -7425.29260366 Ry
     estimated scf accuracy    <          5.6E-09 Ry

     The total energy is the sum of the following terms:

     one-electron contribution =  -48520.85336268 Ry
     hartree contribution      =   24813.67336111 Ry
     xc contribution           =   -3604.19803142 Ry
     ewald contribution        =   19886.08833756 Ry
     smearing contrib. (-TS)   =      -0.00290825 Ry

     convergence has been achieved in  29 iterations

     Writing output data file 6137030.save

     init_run     :    111.62s CPU    120.42s WALL (       1 calls)
     electrons    :   7832.11s CPU   8394.40s WALL (       1 calls)

     Called by init_run:
     wfcinit      :     78.37s CPU     86.19s WALL (       1 calls)
     potinit      :      7.54s CPU      8.08s WALL (       1 calls)

     Called by electrons:
     c_bands      :   6213.41s CPU   6662.74s WALL (      30 calls)
     sum_band     :    994.82s CPU   1080.92s WALL (      30 calls)
     v_of_rho     :    131.25s CPU    146.80s WALL (      30 calls)
     newd         :    506.62s CPU    517.40s WALL (      30 calls)
     mix_rho      :      3.94s CPU      4.45s WALL (      30 calls)
     vdW_energy   :     11.24s CPU     12.47s WALL (      30 calls)
     vdW_ffts     :     64.66s CPU     72.52s WALL (      60 calls)
     vdW_v        :     17.49s CPU     18.82s WALL (      30 calls)

     Called by c_bands:
     init_us_2    :     19.50s CPU     21.10s WALL (     366 calls)
     cegterg      :   6121.79s CPU   6566.14s WALL (     180 calls)

     Called by *egterg:
     h_psi        :   2604.82s CPU   2990.18s WALL (     895 calls)
     s_psi        :    394.12s CPU    400.67s WALL (     895 calls)
     g_psi        :      4.85s CPU      4.95s WALL (     709 calls)
     cdiaghg      :   1621.36s CPU   1632.61s WALL (     883 calls)

     Called by h_psi:
     add_vuspsi   :    402.15s CPU    411.53s WALL (     895 calls)

     General routines
     calbec       :    672.51s CPU    679.90s WALL (    1075 calls)
     fft          :    184.44s CPU    199.53s WALL (    1980 calls)
     ffts         :      1.70s CPU      2.02s WALL (      60 calls)
     fftw         :   1805.13s CPU   2196.01s WALL (  483156 calls)
     interpolate  :      4.95s CPU      5.86s WALL (      60 calls)
     davcio       :      0.00s CPU      0.26s WALL (       6 calls)

     Parallel routines
     fft_scatter  :   1353.31s CPU   1661.70s WALL (  485196 calls)

     PWSCF        :     2h12m CPU        2h22m WALL


   This run was terminated on:  20: 3:28  29Aug2015            

=------------------------------------------------------------------------------=
   JOB DONE.
=------------------------------------------------------------------------------=
