Setting SGE environment for SCC

     Program PWSCF v.5.1.2 starts on 29Aug2015 at 18: 6:58 

     This program is part of the open-source Quantum ESPRESSO suite
     for quantum simulation of materials; please cite
         "P. Giannozzi et al., J. Phys.:Condens. Matter 21 395502 (2009);
          URL http://www.quantum-espresso.org", 
     in publications or presentations arising from this work. More details at
     http://www.quantum-espresso.org/quote

     Parallel version (MPI), running on    32 processors
     R & G space division:  proc/nbgrp/npool/nimage =      32
     Reading input from top.O1.Au62.d.4.0.phi.0.psi.0.in
Warning: card &IONS ignored
Warning: card / ignored
Warning: card &CELL ignored
Warning: card / ignored

     Current dimensions of program PWSCF are:
     Max number of different atomic species (ntypx) = 10
     Max number of k-points (npk) =  40000
     Max angular momentum in pseudopotentials (lmaxx) =  3

     IMPORTANT: XC functional enforced from input :
     Exchange-correlation      = VDW-DF ( 1  4  4  0 1 0)
     Any further DFT definition will be discarded
     Please, verify this is what you really want


     Subspace diagonalization in iterative solution of the eigenvalue problem:
     a serial algorithm will be used


     Parallelization info
     --------------------
     sticks:   dense  smooth     PW     G-vecs:    dense   smooth      PW
     Min         578     289     74               118518    41891    5486
     Max         579     290     75               118533    41932    5497
     Sum       18505    9265   2385              3792731  1341081  175711


     Title: 
     top.O1.Au62.d.4.0.phi.0.psi.0                                              


     bravais-lattice index     =            8
     lattice parameter (alat)  =      24.1233  a.u.
     unit-cell volume          =   28076.2361 (a.u.)^3
     number of atoms/cell      =           75
     number of atomic types    =            3
     number of electrons       =       800.00
     number of Kohn-Sham states=          480
     kinetic-energy cutoff     =      50.0000  Ry
     charge density cutoff     =     400.0000  Ry
     convergence threshold     =      1.0E-08
     mixing beta               =       0.7000
     number of iterations used =            8  plain     mixing
     Exchange-correlation      = VDW-DF ( 1  4  4  0 1 0)

     celldm(1)=  24.123277  celldm(2)=   1.000000  celldm(3)=   2.000000
     celldm(4)=   0.000000  celldm(5)=   0.000000  celldm(6)=   0.000000

     crystal axes: (cart. coord. in units of alat)
               a(1) = (   1.000000   0.000000   0.000000 )  
               a(2) = (   0.000000   1.000000   0.000000 )  
               a(3) = (   0.000000   0.000000   2.000000 )  

     reciprocal axes: (cart. coord. in units 2 pi/alat)
               b(1) = (  1.000000  0.000000  0.000000 )  
               b(2) = (  0.000000  1.000000  0.000000 )  
               b(3) = (  0.000000  0.000000  0.500000 )  


     PseudoPot. # 1 for Au read from file:
     /home/scc/andrejb/qe/pseudo/Au.pbe-nd-van.UPF
     MD5 check sum: 458681b50f36d87ef23c61b04bba420a
     Pseudo is Ultrasoft + core correction, Zval = 11.0
     Generated by new atomic code, or converted to UPF format
     Using radial grid of  985 points,  3 beta functions with: 
                l(1) =   1
                l(2) =   2
                l(3) =   2
     Q(r) pseudized with  8 coefficients,  rinner =    1.100   1.100   1.100
                                                       1.100   1.100

     PseudoPot. # 2 for H  read from file:
     /home/scc/andrejb/qe/pseudo/H.pbe-van_ak.UPF
     MD5 check sum: 403db7282739603aa925980fa9b8608d
     Pseudo is Ultrasoft, Zval =  1.0
     Generated by new atomic code, or converted to UPF format
     Using radial grid of  615 points,  1 beta functions with: 
                l(1) =   0
     Q(r) pseudized with  8 coefficients,  rinner =    0.800

     PseudoPot. # 3 for O  read from file:
     /home/scc/andrejb/qe/pseudo/O.pbe-van_ak.UPF
     MD5 check sum: 4b8c549914a63cae506c6ff22b5af4fe
     Pseudo is Ultrasoft, Zval =  6.0
     Generated by new atomic code, or converted to UPF format
     Using radial grid of  737 points,  4 beta functions with: 
                l(1) =   0
                l(2) =   0
                l(3) =   1
                l(4) =   1
     Q(r) pseudized with  8 coefficients,  rinner =    0.800   0.800   0.800


     vdW kernel table read from file vdW_kernel_table
     MD5 check sum: 48e77a2e26edf626eeb0eaa751ad5cac

     atomic species   valence    mass     pseudopotential
        Au            11.00   196.96657     Au( 1.00)
        H              1.00     1.01000     H ( 1.00)
        O              6.00    16.00000     O ( 1.00)

     No symmetry found



   Cartesian axes

     site n.     atom                  positions (alat units)
         1           O   tau(   1) = (   0.4998324   0.3332216   0.8126634  )
         2           H   tau(   2) = (   0.4527548   0.2940501   0.8581573  )
         3           H   tau(   3) = (   0.5454827   0.3712233   0.8605210  )
         4           Au  tau(   4) = (   0.0000000   0.0000000   0.0000000  )
         5           Au  tau(   5) = (   0.3332217   0.0000000   0.0000000  )
         6           Au  tau(   6) = (   0.6664434   0.0000000   0.0000000  )
         7           Au  tau(   7) = (   0.1666109   0.1666109   0.0000000  )
         8           Au  tau(   8) = (   0.4998326   0.1666109   0.0000000  )
         9           Au  tau(   9) = (   0.8330542   0.1666109   0.0000000  )
        10           Au  tau(  10) = (   0.0000000   0.3332217   0.0000000  )
        11           Au  tau(  11) = (   0.3332217   0.3332217   0.0000000  )
        12           Au  tau(  12) = (   0.6664434   0.3332217   0.0000000  )
        13           Au  tau(  13) = (   0.1666109   0.4998326   0.0000000  )
        14           Au  tau(  14) = (   0.4998326   0.4998326   0.0000000  )
        15           Au  tau(  15) = (   0.8330542   0.4998326   0.0000000  )
        16           Au  tau(  16) = (   0.0000000   0.6664434   0.0000000  )
        17           Au  tau(  17) = (   0.3332217   0.6664434   0.0000000  )
        18           Au  tau(  18) = (   0.6664434   0.6664434   0.0000000  )
        19           Au  tau(  19) = (   0.1666109   0.8330542   0.0000000  )
        20           Au  tau(  20) = (   0.4998326   0.8330542   0.0000000  )
        21           Au  tau(  21) = (   0.8330542   0.8330542   0.0000000  )
        22           Au  tau(  22) = (   0.1666109   0.0000000   0.1666109  )
        23           Au  tau(  23) = (   0.4998326   0.0000000   0.1666109  )
        24           Au  tau(  24) = (   0.8330542   0.0000000   0.1666109  )
        25           Au  tau(  25) = (   0.0000000   0.1666109   0.1666109  )
        26           Au  tau(  26) = (   0.3332217   0.1666109   0.1666109  )
        27           Au  tau(  27) = (   0.6664434   0.1666109   0.1666109  )
        28           Au  tau(  28) = (   0.1666109   0.3332217   0.1666109  )
        29           Au  tau(  29) = (   0.4998326   0.3332217   0.1666109  )
        30           Au  tau(  30) = (   0.8330542   0.3332217   0.1666109  )
        31           Au  tau(  31) = (   0.0000000   0.4998326   0.1666109  )
        32           Au  tau(  32) = (   0.3332217   0.4998326   0.1666109  )
        33           Au  tau(  33) = (   0.6664434   0.4998326   0.1666109  )
        34           Au  tau(  34) = (   0.1666109   0.6664434   0.1666109  )
        35           Au  tau(  35) = (   0.4998326   0.6664434   0.1666109  )
        36           Au  tau(  36) = (   0.8330542   0.6664434   0.1666109  )
        37           Au  tau(  37) = (   0.0000000   0.8330542   0.1666109  )
        38           Au  tau(  38) = (   0.3332217   0.8330542   0.1666109  )
        39           Au  tau(  39) = (   0.6664434   0.8330542   0.1666109  )
        40           Au  tau(  40) = (  -0.0000182  -0.0000182   0.3335478  )
        41           Au  tau(  41) = (   0.3332215  -0.0000181   0.3335473  )
        42           Au  tau(  42) = (   0.6664447  -0.0000183   0.3335481  )
        43           Au  tau(  43) = (  -0.0000181   0.3332215   0.3335473  )
        44           Au  tau(  44) = (   0.3332215   0.3332215   0.3335468  )
        45           Au  tau(  45) = (   0.6664445   0.3332215   0.3335477  )
        46           Au  tau(  46) = (  -0.0000183   0.6664447   0.3335481  )
        47           Au  tau(  47) = (   0.3332215   0.6664445   0.3335477  )
        48           Au  tau(  48) = (   0.6664446   0.6664446   0.3335486  )
        49           Au  tau(  49) = (   0.1666097   0.1666097   0.3335483  )
        50           Au  tau(  50) = (   0.4998320   0.1666098   0.3335477  )
        51           Au  tau(  51) = (   0.8330732   0.1666096   0.3335480  )
        52           Au  tau(  52) = (   0.1666098   0.4998320   0.3335477  )
        53           Au  tau(  53) = (   0.4998322   0.4998322   0.3335470  )
        54           Au  tau(  54) = (   0.8330731   0.4998322   0.3335474  )
        55           Au  tau(  55) = (   0.1666096   0.8330732   0.3335480  )
        56           Au  tau(  56) = (   0.4998322   0.8330731   0.3335474  )
        57           Au  tau(  57) = (   0.8330731   0.8330731   0.3335478  )
        58           Au  tau(  58) = (   0.1666104  -0.0000111   0.4993095  )
        59           Au  tau(  59) = (   0.4998323  -0.0000112   0.4993099  )
        60           Au  tau(  60) = (   0.8330660  -0.0000111   0.4993009  )
        61           Au  tau(  61) = (  -0.0000111   0.1666104   0.4993095  )
        62           Au  tau(  62) = (   0.3332213   0.1666106   0.4993185  )
        63           Au  tau(  63) = (   0.6664437   0.1666106   0.4993187  )
        64           Au  tau(  64) = (   0.1666106   0.3332213   0.4993185  )
        65           Au  tau(  65) = (   0.4998324   0.3332216   0.4993185  )
        66           Au  tau(  66) = (   0.8330658   0.3332215   0.4993102  )
        67           Au  tau(  67) = (  -0.0000112   0.4998323   0.4993099  )
        68           Au  tau(  68) = (   0.3332216   0.4998324   0.4993185  )
        69           Au  tau(  69) = (   0.6664437   0.4998325   0.4993187  )
        70           Au  tau(  70) = (   0.1666106   0.6664437   0.4993187  )
        71           Au  tau(  71) = (   0.4998325   0.6664437   0.4993187  )
        72           Au  tau(  72) = (   0.8330658   0.6664438   0.4993102  )
        73           Au  tau(  73) = (  -0.0000111   0.8330660   0.4993009  )
        74           Au  tau(  74) = (   0.3332215   0.8330658   0.4993102  )
        75           Au  tau(  75) = (   0.6664438   0.8330658   0.4993102  )

     number of k points=     6  Marzari-Vanderbilt smearing, width (Ry)=  0.0200
                       cart. coord. in units 2pi/alat
        k(    1) = (   0.2500000   0.2500000   0.0833333), wk =   0.3333333
        k(    2) = (   0.2500000   0.2500000  -0.2500000), wk =   0.3333333
        k(    3) = (  -0.2500000  -0.2500000   0.0833333), wk =   0.3333333
        k(    4) = (  -0.2500000   0.2500000  -0.0833333), wk =   0.3333333
        k(    5) = (   0.2500000  -0.2500000  -0.0833333), wk =   0.3333333
        k(    6) = (  -0.2500000   0.2500000   0.2500000), wk =   0.3333333

     Dense  grid:  3792731 G-vectors     FFT dimensions: ( 160, 160, 320)

     Smooth grid:  1341081 G-vectors     FFT dimensions: ( 120, 120, 225)

     Largest allocated arrays     est. size (Mb)     dimensions
        Kohn-Sham Wavefunctions        38.58 Mb     (    5267,  480)
        NL pseudopotentials            76.03 Mb     (    5267,  946)
        Each V/rho on FFT grid          3.91 Mb     (  256000)
        Each G-vector array             0.90 Mb     (  118520)
        G-vector shells                 0.08 Mb     (   10286)
     Largest temporary arrays     est. size (Mb)     dimensions
        Auxiliary wavefunctions       154.31 Mb     (    5267, 1920)
        Each subspace H/S matrix       56.25 Mb     (    1920, 1920)
        Each <psi_i|beta_j> matrix      6.93 Mb     (     946,  480)
        Arrays for rho mixing          31.25 Mb     (  256000,    8)

     Initial potential from superposition of free atoms
     Check: negative starting charge=   -1.944883

     starting charge  799.16392, renormalised to  800.00000

     negative rho (up, down):  1.947E+00 0.000E+00


     ************************************************************************
     *
     * You are using vdW-DF for exchange-correlation in this calculation.
     * Please cite the following three references that made this development
     * possible:
     *
     *   M. Dion, H. Rydberg, E. Schroder, D. C. Langreth, and
     *   B. I. Lundqvist, Phys. Rev. Lett. 92, 246401 (2004).
     *
     *   T. Thonhauser, V. R. Cooper, S. Li, A. Puzder, P. Hyldgaard, and
     *   D. C. Langreth, Phys. Rev. B 76, 125112 (2007).
     *
     *   G. Roman-Perez and J. M. Soler, Phys. Rev. Lett. 103, 096102 (2009).
     *
     *
     * If you are using vdW-DF2, please also cite:
     *
     *   K. Lee, E. D. Murray, L. Kong, B. I. Lundqvist, and
     *   D. C. Langreth, Phys. Rev. B 82, 081101(R) (2010).
     *
     *
     * If you are calculating the stress with vdW-DF, please also cite:
     *
     *   R. Sabatini, E. Kucukbenli, B. Kolb, T. Thonhauser, and
     *   S. de Gironcoli, J. Phys.: Condens. Matter 24, 424209 (2012).
     *
     ************************************************************************

     Carrying out vdW-DF run using the following parameters:

     Nqs =      20    Nr_points =    1024   r_max =   100.000
     q_mesh =
               0.00001000     0.04494208     0.09755937     0.15916263
               0.23128650     0.31572767     0.41458969     0.53033537
               0.66584808     0.82450364     1.01025438     1.22772762
               1.48234092     1.78043706     2.12944203     2.53805004
               3.01644009     3.57652955     4.23227104     5.00000000

     Gradients computed in reciprocal space

     ************************************************************************


     Starting wfc are  654 randomized atomic wfcs

     total cpu time spent up to now is      158.5 secs

     Self-consistent Calculation

     iteration #  1     ecut=    50.00 Ry     beta=0.70
     Davidson diagonalization with overlap
     ethr =  1.00E-02,  avg # of iterations =  3.0

     Threshold (ethr) on eigenvalues was too large:
     Diagonalizing with lowered threshold

     Davidson diagonalization with overlap
     ethr =  4.29E-04,  avg # of iterations =  2.3

     negative rho (up, down):  1.947E+00 0.000E+00

     total cpu time spent up to now is      663.2 secs

     total energy              =   -7423.00100557 Ry
     Harris-Foulkes estimate   =   -7426.09046812 Ry
     estimated scf accuracy    <       3.81076344 Ry

     iteration #  2     ecut=    50.00 Ry     beta=0.70
     Davidson diagonalization with overlap
     ethr =  4.76E-04,  avg # of iterations = 11.2

     negative rho (up, down):  1.941E+00 0.000E+00

     total cpu time spent up to now is     1411.6 secs

     total energy              =   -7414.66171206 Ry
     Harris-Foulkes estimate   =   -7432.75384753 Ry
     estimated scf accuracy    <      95.40665756 Ry

     iteration #  3     ecut=    50.00 Ry     beta=0.70
     Davidson diagonalization with overlap
     ethr =  4.76E-04,  avg # of iterations =  6.0

     negative rho (up, down):  1.952E+00 0.000E+00

     total cpu time spent up to now is     1901.2 secs

     total energy              =   -7424.08153294 Ry
     Harris-Foulkes estimate   =   -7425.89322238 Ry
     estimated scf accuracy    <       7.72065328 Ry

     iteration #  4     ecut=    50.00 Ry     beta=0.70
     Davidson diagonalization with overlap
     ethr =  4.76E-04,  avg # of iterations =  6.0

     negative rho (up, down):  1.955E+00 0.000E+00

     total cpu time spent up to now is     2187.7 secs

     total energy              =   -7424.94414111 Ry
     Harris-Foulkes estimate   =   -7425.57054992 Ry
     estimated scf accuracy    <       2.75611347 Ry

     iteration #  5     ecut=    50.00 Ry     beta=0.70
     Davidson diagonalization with overlap
     ethr =  3.45E-04,  avg # of iterations =  6.3

     negative rho (up, down):  1.962E+00 0.000E+00

     total cpu time spent up to now is     2486.1 secs

     total energy              =   -7424.99365853 Ry
     Harris-Foulkes estimate   =   -7425.64592554 Ry
     estimated scf accuracy    <       5.50396645 Ry

     iteration #  6     ecut=    50.00 Ry     beta=0.70
     Davidson diagonalization with overlap
     ethr =  3.45E-04,  avg # of iterations =  3.0

     negative rho (up, down):  1.967E+00 0.000E+00

     total cpu time spent up to now is     2740.4 secs

     total energy              =   -7425.28757726 Ry
     Harris-Foulkes estimate   =   -7425.32603032 Ry
     estimated scf accuracy    <       0.13076943 Ry

     iteration #  7     ecut=    50.00 Ry     beta=0.70
     Davidson diagonalization with overlap
     ethr =  1.63E-05,  avg # of iterations =  7.8

     negative rho (up, down):  1.969E+00 0.000E+00

     total cpu time spent up to now is     3078.5 secs

     total energy              =   -7425.28558497 Ry
     Harris-Foulkes estimate   =   -7425.31889080 Ry
     estimated scf accuracy    <       0.14849254 Ry

     iteration #  8     ecut=    50.00 Ry     beta=0.70
     Davidson diagonalization with overlap
     ethr =  1.63E-05,  avg # of iterations =  3.2

     negative rho (up, down):  1.971E+00 0.000E+00

     total cpu time spent up to now is     3321.8 secs

     total energy              =   -7425.28937474 Ry
     Harris-Foulkes estimate   =   -7425.30667216 Ry
     estimated scf accuracy    <       0.07337613 Ry

     iteration #  9     ecut=    50.00 Ry     beta=0.70
     Davidson diagonalization with overlap
     ethr =  9.17E-06,  avg # of iterations =  7.8

     negative rho (up, down):  1.972E+00 0.000E+00

     total cpu time spent up to now is     3626.9 secs

     total energy              =   -7425.28919392 Ry
     Harris-Foulkes estimate   =   -7425.30161640 Ry
     estimated scf accuracy    <       0.05088904 Ry

     iteration # 10     ecut=    50.00 Ry     beta=0.70
     Davidson diagonalization with overlap
     ethr =  6.36E-06,  avg # of iterations =  5.8

     negative rho (up, down):  1.973E+00 0.000E+00

     total cpu time spent up to now is     3906.1 secs

     total energy              =   -7425.29166935 Ry
     Harris-Foulkes estimate   =   -7425.29486358 Ry
     estimated scf accuracy    <       0.00992889 Ry

     iteration # 11     ecut=    50.00 Ry     beta=0.70
     Davidson diagonalization with overlap
     ethr =  1.24E-06,  avg # of iterations =  6.3

     negative rho (up, down):  1.974E+00 0.000E+00

     total cpu time spent up to now is     4203.4 secs

     total energy              =   -7425.29184643 Ry
     Harris-Foulkes estimate   =   -7425.29323277 Ry
     estimated scf accuracy    <       0.00517092 Ry

     iteration # 12     ecut=    50.00 Ry     beta=0.70
     Davidson diagonalization with overlap
     ethr =  6.46E-07,  avg # of iterations =  4.2

     negative rho (up, down):  1.975E+00 0.000E+00

     total cpu time spent up to now is     4471.8 secs

     total energy              =   -7425.29096783 Ry
     Harris-Foulkes estimate   =   -7425.29229850 Ry
     estimated scf accuracy    <       0.00181346 Ry

     iteration # 13     ecut=    50.00 Ry     beta=0.70
     Davidson diagonalization with overlap
     ethr =  2.27E-07,  avg # of iterations = 11.7

     negative rho (up, down):  1.974E+00 0.000E+00

     total cpu time spent up to now is     4972.8 secs

     total energy              =   -7425.29041141 Ry
     Harris-Foulkes estimate   =   -7425.29244014 Ry
     estimated scf accuracy    <       0.00868772 Ry

     iteration # 14     ecut=    50.00 Ry     beta=0.70
     Davidson diagonalization with overlap
     ethr =  2.27E-07,  avg # of iterations =  3.0

     negative rho (up, down):  1.974E+00 0.000E+00

     total cpu time spent up to now is     5287.3 secs

     total energy              =   -7425.29123018 Ry
     Harris-Foulkes estimate   =   -7425.29164039 Ry
     estimated scf accuracy    <       0.00180812 Ry

     iteration # 15     ecut=    50.00 Ry     beta=0.70
     Davidson diagonalization with overlap
     ethr =  2.26E-07,  avg # of iterations =  2.0

     negative rho (up, down):  1.974E+00 0.000E+00

     total cpu time spent up to now is     5531.6 secs

     total energy              =   -7425.29129291 Ry
     Harris-Foulkes estimate   =   -7425.29159370 Ry
     estimated scf accuracy    <       0.00169337 Ry

     iteration # 16     ecut=    50.00 Ry     beta=0.70
     Davidson diagonalization with overlap
     ethr =  2.12E-07,  avg # of iterations =  1.0

     negative rho (up, down):  1.974E+00 0.000E+00

     total cpu time spent up to now is     5762.9 secs

     total energy              =   -7425.29140962 Ry
     Harris-Foulkes estimate   =   -7425.29153922 Ry
     estimated scf accuracy    <       0.00102476 Ry

     iteration # 17     ecut=    50.00 Ry     beta=0.70
     Davidson diagonalization with overlap
     ethr =  1.28E-07,  avg # of iterations =  1.0

     negative rho (up, down):  1.974E+00 0.000E+00

     total cpu time spent up to now is     5984.1 secs

     total energy              =   -7425.29146754 Ry
     Harris-Foulkes estimate   =   -7425.29148922 Ry
     estimated scf accuracy    <       0.00006048 Ry

     iteration # 18     ecut=    50.00 Ry     beta=0.70
     Davidson diagonalization with overlap
     ethr =  7.56E-09,  avg # of iterations =  2.5

     negative rho (up, down):  1.974E+00 0.000E+00

     total cpu time spent up to now is     6240.0 secs

     total energy              =   -7425.29147480 Ry
     Harris-Foulkes estimate   =   -7425.29148447 Ry
     estimated scf accuracy    <       0.00003648 Ry

     iteration # 19     ecut=    50.00 Ry     beta=0.70
     Davidson diagonalization with overlap
     ethr =  4.56E-09,  avg # of iterations =  2.3

     negative rho (up, down):  1.974E+00 0.000E+00

     total cpu time spent up to now is     6479.8 secs

     total energy              =   -7425.29147570 Ry
     Harris-Foulkes estimate   =   -7425.29148557 Ry
     estimated scf accuracy    <       0.00005215 Ry

     iteration # 20     ecut=    50.00 Ry     beta=0.70
     Davidson diagonalization with overlap
     ethr =  4.56E-09,  avg # of iterations =  2.0

     negative rho (up, down):  1.974E+00 0.000E+00

     total cpu time spent up to now is     6720.9 secs

     total energy              =   -7425.29147986 Ry
     Harris-Foulkes estimate   =   -7425.29148199 Ry
     estimated scf accuracy    <       0.00000798 Ry

     iteration # 21     ecut=    50.00 Ry     beta=0.70
     Davidson diagonalization with overlap
     ethr =  9.97E-10,  avg # of iterations =  2.0

     negative rho (up, down):  1.974E+00 0.000E+00

     total cpu time spent up to now is     6972.8 secs

     total energy              =   -7425.29148088 Ry
     Harris-Foulkes estimate   =   -7425.29148166 Ry
     estimated scf accuracy    <       0.00000352 Ry

     iteration # 22     ecut=    50.00 Ry     beta=0.70
     Davidson diagonalization with overlap
     ethr =  4.40E-10,  avg # of iterations =  3.0

     negative rho (up, down):  1.974E+00 0.000E+00

     total cpu time spent up to now is     7229.5 secs

     total energy              =   -7425.29148153 Ry
     Harris-Foulkes estimate   =   -7425.29148158 Ry
     estimated scf accuracy    <       0.00000080 Ry

     iteration # 23     ecut=    50.00 Ry     beta=0.70
     Davidson diagonalization with overlap
     ethr =  9.97E-11,  avg # of iterations =  3.0

     negative rho (up, down):  1.974E+00 0.000E+00

     total cpu time spent up to now is     7487.7 secs

     total energy              =   -7425.29148164 Ry
     Harris-Foulkes estimate   =   -7425.29148168 Ry
     estimated scf accuracy    <       0.00000018 Ry

     iteration # 24     ecut=    50.00 Ry     beta=0.70
     Davidson diagonalization with overlap
     ethr =  2.21E-11,  avg # of iterations =  3.0

     negative rho (up, down):  1.974E+00 0.000E+00

     total cpu time spent up to now is     7754.7 secs

     total energy              =   -7425.29148171 Ry
     Harris-Foulkes estimate   =   -7425.29148172 Ry
     estimated scf accuracy    <       0.00000030 Ry

     iteration # 25     ecut=    50.00 Ry     beta=0.70
     Davidson diagonalization with overlap
     ethr =  2.21E-11,  avg # of iterations =  2.0

     negative rho (up, down):  1.974E+00 0.000E+00

     total cpu time spent up to now is     8011.2 secs

     total energy              =   -7425.29148175 Ry
     Harris-Foulkes estimate   =   -7425.29148175 Ry
     estimated scf accuracy    <       0.00000010 Ry

     iteration # 26     ecut=    50.00 Ry     beta=0.70
     Davidson diagonalization with overlap
     ethr =  1.23E-11,  avg # of iterations =  2.0

     negative rho (up, down):  1.974E+00 0.000E+00

     total cpu time spent up to now is     8251.4 secs

     total energy              =   -7425.29148175 Ry
     Harris-Foulkes estimate   =   -7425.29148180 Ry
     estimated scf accuracy    <       0.00000064 Ry

     iteration # 27     ecut=    50.00 Ry     beta=0.70
     Davidson diagonalization with overlap
     ethr =  1.23E-11,  avg # of iterations =  2.0

     negative rho (up, down):  1.974E+00 0.000E+00

     total cpu time spent up to now is     8492.4 secs

     total energy              =   -7425.29148179 Ry
     Harris-Foulkes estimate   =   -7425.29148179 Ry
     estimated scf accuracy    <       0.00000002 Ry

     iteration # 28     ecut=    50.00 Ry     beta=0.70
     Davidson diagonalization with overlap
     ethr =  3.02E-12,  avg # of iterations =  2.0

     negative rho (up, down):  1.974E+00 0.000E+00

     total cpu time spent up to now is     8744.4 secs

     total energy              =   -7425.29148180 Ry
     Harris-Foulkes estimate   =   -7425.29148180 Ry
     estimated scf accuracy    <       0.00000002 Ry

     iteration # 29     ecut=    50.00 Ry     beta=0.70
     Davidson diagonalization with overlap
     ethr =  2.20E-12,  avg # of iterations =  2.0

     negative rho (up, down):  1.974E+00 0.000E+00

     total cpu time spent up to now is     8979.9 secs

     End of self-consistent calculation

          k = 0.2500 0.2500 0.0833 (167653 PWs)   bands (ev):

   -19.4566  -7.2700  -6.7440  -6.2157  -6.2150  -5.7858  -5.3768  -5.2838
    -5.2832  -5.0875  -5.0875  -4.9700  -4.9692  -4.8911  -4.8681  -4.7951
    -4.7100  -4.7065  -4.6676  -4.6674  -4.5065  -4.4896  -4.4889  -4.4884
    -4.4820  -4.4259  -4.4259  -4.4142  -4.4137  -4.3770  -4.3646  -4.3639
    -4.3222  -4.3221  -4.2886  -4.2875  -4.2357  -4.2351  -4.2246  -4.2233
    -4.2183  -4.2050  -4.2049  -4.1634  -4.1456  -4.1453  -4.1387  -4.1384
    -4.1065  -4.0565  -4.0415  -4.0410  -4.0374  -4.0371  -4.0293  -4.0241
    -4.0235  -4.0234  -3.9587  -3.9579  -3.9086  -3.9081  -3.8961  -3.8700
    -3.8698  -3.8496  -3.8475  -3.8471  -3.8429  -3.8396  -3.7907  -3.7907
    -3.7777  -3.7772  -3.6725  -3.6722  -3.6663  -3.6657  -3.6287  -3.6183
    -3.6063  -3.5756  -3.5753  -3.5469  -3.5469  -3.5249  -3.5249  -3.5114
    -3.5113  -3.5018  -3.4563  -3.4559  -3.4368  -3.4228  -3.4103  -3.4093
    -3.4089  -3.4077  -3.3806  -3.3803  -3.3441  -3.3437  -3.3214  -3.3210
    -3.2886  -3.2883  -3.2699  -3.2426  -3.2425  -3.2053  -3.2049  -3.1696
    -3.1623  -3.1613  -3.1476  -3.1471  -3.1423  -3.1420  -3.1027  -3.0942
    -3.0526  -3.0526  -3.0448  -3.0353  -3.0345  -3.0329  -3.0088  -3.0087
    -2.9875  -2.9872  -2.9864  -2.9598  -2.9598  -2.9523  -2.9494  -2.9494
    -2.9138  -2.9086  -2.8739  -2.8734  -2.8727  -2.8698  -2.8696  -2.7907
    -2.7806  -2.7765  -2.7758  -2.7747  -2.7743  -2.7695  -2.7694  -2.7692
    -2.7685  -2.7595  -2.7517  -2.7346  -2.7320  -2.7316  -2.7308  -2.7165
    -2.7116  -2.6735  -2.6729  -2.6727  -2.6689  -2.6681  -2.6504  -2.6499
    -2.6411  -2.6411  -2.6389  -2.5793  -2.5793  -2.5739  -2.5738  -2.5687
    -2.5687  -2.5405  -2.4813  -2.4803  -2.4798  -2.4784  -2.4667  -2.4646
    -2.4596  -2.4487  -2.4483  -2.4119  -2.4111  -2.4028  -2.4020  -2.4016
    -2.4014  -2.3622  -2.3616  -2.3521  -2.3520  -2.3504  -2.3500  -2.3083
    -2.2921  -2.2869  -2.2335  -2.2332  -2.2146  -2.2133  -2.2079  -2.2077
    -2.1595  -2.1585  -2.1354  -2.1190  -2.1051  -2.1040  -2.1037  -2.0820
    -2.0818  -2.0722  -2.0555  -2.0139  -2.0133  -2.0011  -2.0010  -2.0001
    -1.9890  -1.9888  -1.9735  -1.9733  -1.9712  -1.9689  -1.9651  -1.9642
    -1.9629  -1.9514  -1.9509  -1.9335  -1.9331  -1.9310  -1.9251  -1.9220
    -1.9216  -1.8982  -1.8977  -1.8866  -1.8844  -1.8804  -1.8793  -1.8412
    -1.8078  -1.8070  -1.7719  -1.7548  -1.7543  -1.7439  -1.7435  -1.7203
    -1.7197  -1.7053  -1.7051  -1.7035  -1.7034  -1.7006  -1.7003  -1.6679
    -1.6677  -1.6673  -1.6215  -1.6210  -1.5815  -1.5811  -1.5343  -1.5339
    -1.5216  -1.4991  -1.4934  -1.4920  -1.4760  -1.4746  -1.4647  -1.4559
    -1.4553  -1.4510  -1.4508  -1.4489  -1.4483  -1.4479  -1.4437  -1.4256
    -1.4248  -1.4147  -1.3976  -1.3783  -1.3782  -1.3525  -1.3524  -1.3494
    -1.3487  -1.3461  -1.3426  -1.3211  -1.3208  -1.3063  -1.3052  -1.2929
    -1.2829  -1.2695  -1.2687  -1.2383  -1.2378  -1.2299  -1.2297  -1.1947
    -1.1939  -1.1861  -1.1855  -1.1773  -1.1769  -1.1556  -1.1552  -1.1434
    -1.1368  -1.1364  -1.1236  -1.1232  -1.1225  -1.1218  -1.1080  -1.0976
    -1.0969  -1.0897  -1.0895  -1.0775  -1.0729  -1.0724  -1.0659  -1.0270
    -1.0243  -1.0186  -1.0181  -1.0180  -1.0148  -0.9772  -0.9610  -0.9600
    -0.9599  -0.9594  -0.9550  -0.9548  -0.9501  -0.9365  -0.9355  -0.8985
    -0.8977  -0.8911  -0.8910  -0.8682  -0.8679  -0.8581  -0.8284  -0.8207
    -0.7935  -0.7929  -0.7653  -0.7651  -0.7621  -0.7613  -0.7604  -0.7569
    -0.7531  -0.7511  -0.7466  -0.7462  -0.7144  -0.7140  -0.6967  -0.6953
    -0.6908  -0.6905  -0.6891  -0.6881  -0.6701  -0.3919  -0.3858  -0.3294
    -0.3261  -0.2887  -0.1280  -0.0630  -0.0624  -0.0314   0.2562   0.2568
     0.5851   0.5882   0.6853   0.6855   0.7260   0.7274   0.8692   0.8711
     0.9944   0.9956   1.0820   1.6813   1.6996   1.7002   1.7404   1.7436
     1.7855   1.7921   1.8690   1.8708   2.0768   2.0775   2.3107   2.3905
     2.3941   2.4081   2.7859   2.7914   2.8621   2.8642   2.8696   2.8705
     3.0215   3.0222   3.0639   3.1636   3.1668   3.3930   3.4032   3.5318
     3.5585   3.5599   3.8292   3.8315   3.9421   3.9623   3.9625   4.0128
     4.0266   4.1486   4.1503   4.3856   4.3874   4.4698   4.4746   4.5981
     4.5990   4.6067   4.6204   4.6268   4.7874   5.3991   5.4015   5.4378
     5.5276   5.5312   5.5974   5.7060   5.7113   5.7117   5.7338   5.8237
     5.8242   5.8793   5.8801   5.9227   5.9527   6.0524   6.0796   6.1630
     6.1711   6.1876   6.1912   6.2056   6.2189   6.2215   6.2294   6.2342

          k = 0.2500 0.2500-0.2500 (167588 PWs)   bands (ev):

   -19.4566  -7.2700  -6.7440  -6.2157  -6.2150  -5.7858  -5.3768  -5.2838
    -5.2832  -5.0875  -5.0875  -4.9700  -4.9692  -4.8911  -4.8681  -4.7951
    -4.7100  -4.7065  -4.6676  -4.6674  -4.5065  -4.4896  -4.4889  -4.4884
    -4.4820  -4.4259  -4.4259  -4.4142  -4.4137  -4.3770  -4.3646  -4.3639
    -4.3222  -4.3221  -4.2886  -4.2875  -4.2357  -4.2351  -4.2246  -4.2233
    -4.2183  -4.2050  -4.2049  -4.1634  -4.1456  -4.1453  -4.1387  -4.1384
    -4.1065  -4.0565  -4.0415  -4.0410  -4.0374  -4.0371  -4.0293  -4.0241
    -4.0235  -4.0234  -3.9587  -3.9579  -3.9086  -3.9081  -3.8961  -3.8699
    -3.8698  -3.8496  -3.8475  -3.8470  -3.8429  -3.8396  -3.7907  -3.7907
    -3.7777  -3.7772  -3.6725  -3.6722  -3.6663  -3.6657  -3.6287  -3.6183
    -3.6063  -3.5756  -3.5753  -3.5469  -3.5469  -3.5249  -3.5249  -3.5114
    -3.5113  -3.5018  -3.4563  -3.4559  -3.4368  -3.4228  -3.4103  -3.4093
    -3.4089  -3.4077  -3.3806  -3.3803  -3.3441  -3.3437  -3.3214  -3.3210
    -3.2886  -3.2883  -3.2699  -3.2426  -3.2425  -3.2053  -3.2049  -3.1696
    -3.1623  -3.1613  -3.1475  -3.1471  -3.1423  -3.1420  -3.1027  -3.0942
    -3.0526  -3.0526  -3.0448  -3.0353  -3.0345  -3.0329  -3.0088  -3.0087
    -2.9875  -2.9872  -2.9864  -2.9598  -2.9598  -2.9523  -2.9494  -2.9494
    -2.9138  -2.9086  -2.8739  -2.8734  -2.8727  -2.8698  -2.8696  -2.7907
    -2.7806  -2.7765  -2.7758  -2.7747  -2.7743  -2.7695  -2.7694  -2.7692
    -2.7685  -2.7595  -2.7517  -2.7346  -2.7319  -2.7316  -2.7308  -2.7165
    -2.7116  -2.6735  -2.6728  -2.6727  -2.6689  -2.6681  -2.6504  -2.6499
    -2.6411  -2.6411  -2.6389  -2.5793  -2.5793  -2.5739  -2.5738  -2.5687
    -2.5687  -2.5405  -2.4813  -2.4803  -2.4798  -2.4784  -2.4667  -2.4646
    -2.4596  -2.4487  -2.4483  -2.4119  -2.4111  -2.4028  -2.4020  -2.4016
    -2.4014  -2.3622  -2.3616  -2.3521  -2.3520  -2.3504  -2.3500  -2.3083
    -2.2921  -2.2869  -2.2335  -2.2331  -2.2147  -2.2133  -2.2079  -2.2077
    -2.1595  -2.1585  -2.1354  -2.1190  -2.1051  -2.1040  -2.1037  -2.0820
    -2.0818  -2.0722  -2.0555  -2.0139  -2.0133  -2.0011  -2.0010  -2.0001
    -1.9890  -1.9888  -1.9735  -1.9733  -1.9712  -1.9689  -1.9651  -1.9642
    -1.9629  -1.9514  -1.9509  -1.9335  -1.9331  -1.9310  -1.9251  -1.9220
    -1.9216  -1.8982  -1.8977  -1.8866  -1.8844  -1.8804  -1.8793  -1.8413
    -1.8078  -1.8070  -1.7719  -1.7548  -1.7543  -1.7439  -1.7435  -1.7203
    -1.7197  -1.7053  -1.7051  -1.7035  -1.7034  -1.7006  -1.7003  -1.6679
    -1.6677  -1.6673  -1.6215  -1.6210  -1.5815  -1.5811  -1.5343  -1.5339
    -1.5216  -1.4991  -1.4934  -1.4920  -1.4760  -1.4746  -1.4647  -1.4559
    -1.4553  -1.4510  -1.4508  -1.4489  -1.4483  -1.4479  -1.4437  -1.4256
    -1.4248  -1.4147  -1.3976  -1.3783  -1.3782  -1.3525  -1.3524  -1.3494
    -1.3487  -1.3461  -1.3426  -1.3211  -1.3208  -1.3063  -1.3052  -1.2929
    -1.2829  -1.2694  -1.2687  -1.2383  -1.2378  -1.2299  -1.2297  -1.1947
    -1.1939  -1.1861  -1.1855  -1.1773  -1.1769  -1.1556  -1.1552  -1.1434
    -1.1368  -1.1364  -1.1236  -1.1232  -1.1225  -1.1218  -1.1080  -1.0976
    -1.0969  -1.0897  -1.0895  -1.0775  -1.0729  -1.0724  -1.0659  -1.0270
    -1.0244  -1.0186  -1.0181  -1.0180  -1.0148  -0.9772  -0.9610  -0.9600
    -0.9599  -0.9594  -0.9549  -0.9548  -0.9501  -0.9365  -0.9355  -0.8985
    -0.8977  -0.8911  -0.8910  -0.8682  -0.8679  -0.8581  -0.8284  -0.8207
    -0.7935  -0.7929  -0.7653  -0.7651  -0.7621  -0.7613  -0.7605  -0.7569
    -0.7531  -0.7510  -0.7466  -0.7462  -0.7144  -0.7140  -0.6967  -0.6953
    -0.6908  -0.6905  -0.6891  -0.6881  -0.6701  -0.3919  -0.3858  -0.3294
    -0.3261  -0.2887  -0.1280  -0.0630  -0.0624  -0.0314   0.2562   0.2568
     0.5851   0.5882   0.6853   0.6855   0.7260   0.7274   0.8692   0.8711
     0.9944   0.9956   1.0820   1.6813   1.6996   1.7002   1.7404   1.7436
     1.7855   1.7921   1.8690   1.8708   2.0769   2.0775   2.3107   2.3905
     2.3941   2.4081   2.7859   2.7914   2.8621   2.8642   2.8696   2.8705
     3.0215   3.0222   3.0640   3.1636   3.1668   3.3930   3.4032   3.5318
     3.5585   3.5599   3.8292   3.8315   3.9421   3.9623   3.9625   4.0130
     4.0267   4.1486   4.1503   4.3856   4.3874   4.4698   4.4746   4.5973
     4.5986   4.6060   4.6204   4.6268   4.7869   5.3992   5.4017   5.4111
     5.5277   5.5310   5.6736   5.6876   5.7100   5.7119   5.7333   5.8237
     5.8242   5.8793   5.8801   5.9227   5.9809   6.0229   6.1189   6.1542
     6.1791   6.1901   6.2052   6.2166   6.2193   6.2218   6.2294   6.2343

          k =-0.2500-0.2500 0.0833 (167653 PWs)   bands (ev):

   -19.4566  -7.2700  -6.7440  -6.2157  -6.2150  -5.7858  -5.3768  -5.2838
    -5.2832  -5.0875  -5.0875  -4.9700  -4.9692  -4.8911  -4.8681  -4.7951
    -4.7100  -4.7065  -4.6676  -4.6674  -4.5065  -4.4896  -4.4889  -4.4884
    -4.4820  -4.4259  -4.4259  -4.4142  -4.4137  -4.3770  -4.3646  -4.3639
    -4.3222  -4.3221  -4.2886  -4.2875  -4.2357  -4.2351  -4.2246  -4.2233
    -4.2183  -4.2050  -4.2049  -4.1634  -4.1456  -4.1453  -4.1387  -4.1384
    -4.1065  -4.0565  -4.0415  -4.0410  -4.0374  -4.0371  -4.0293  -4.0241
    -4.0235  -4.0234  -3.9587  -3.9579  -3.9086  -3.9081  -3.8961  -3.8700
    -3.8698  -3.8496  -3.8475  -3.8471  -3.8429  -3.8396  -3.7907  -3.7907
    -3.7777  -3.7772  -3.6725  -3.6722  -3.6663  -3.6657  -3.6287  -3.6183
    -3.6063  -3.5756  -3.5753  -3.5469  -3.5469  -3.5249  -3.5249  -3.5114
    -3.5113  -3.5018  -3.4563  -3.4559  -3.4368  -3.4228  -3.4103  -3.4093
    -3.4089  -3.4077  -3.3806  -3.3803  -3.3441  -3.3437  -3.3214  -3.3210
    -3.2886  -3.2883  -3.2699  -3.2426  -3.2425  -3.2053  -3.2049  -3.1696
    -3.1623  -3.1613  -3.1476  -3.1471  -3.1423  -3.1420  -3.1027  -3.0942
    -3.0526  -3.0526  -3.0448  -3.0353  -3.0345  -3.0329  -3.0088  -3.0087
    -2.9875  -2.9872  -2.9864  -2.9598  -2.9598  -2.9523  -2.9494  -2.9494
    -2.9138  -2.9086  -2.8739  -2.8734  -2.8727  -2.8698  -2.8696  -2.7907
    -2.7806  -2.7765  -2.7758  -2.7747  -2.7743  -2.7695  -2.7694  -2.7692
    -2.7685  -2.7595  -2.7517  -2.7346  -2.7320  -2.7316  -2.7308  -2.7165
    -2.7116  -2.6735  -2.6729  -2.6727  -2.6689  -2.6681  -2.6504  -2.6499
    -2.6411  -2.6411  -2.6389  -2.5793  -2.5793  -2.5739  -2.5738  -2.5687
    -2.5687  -2.5405  -2.4813  -2.4803  -2.4798  -2.4784  -2.4667  -2.4646
    -2.4596  -2.4487  -2.4483  -2.4119  -2.4111  -2.4028  -2.4020  -2.4016
    -2.4014  -2.3622  -2.3616  -2.3521  -2.3520  -2.3504  -2.3500  -2.3083
    -2.2921  -2.2869  -2.2335  -2.2332  -2.2146  -2.2133  -2.2079  -2.2077
    -2.1595  -2.1585  -2.1354  -2.1190  -2.1051  -2.1040  -2.1037  -2.0820
    -2.0818  -2.0722  -2.0555  -2.0139  -2.0133  -2.0011  -2.0010  -2.0001
    -1.9890  -1.9888  -1.9735  -1.9733  -1.9712  -1.9689  -1.9651  -1.9642
    -1.9629  -1.9514  -1.9509  -1.9335  -1.9331  -1.9310  -1.9251  -1.9220
    -1.9216  -1.8982  -1.8977  -1.8866  -1.8844  -1.8804  -1.8793  -1.8412
    -1.8078  -1.8070  -1.7719  -1.7548  -1.7543  -1.7439  -1.7435  -1.7203
    -1.7197  -1.7053  -1.7051  -1.7035  -1.7034  -1.7006  -1.7003  -1.6679
    -1.6677  -1.6673  -1.6215  -1.6210  -1.5815  -1.5811  -1.5343  -1.5339
    -1.5216  -1.4991  -1.4934  -1.4920  -1.4760  -1.4746  -1.4647  -1.4559
    -1.4553  -1.4510  -1.4508  -1.4489  -1.4483  -1.4479  -1.4437  -1.4256
    -1.4248  -1.4147  -1.3976  -1.3783  -1.3782  -1.3525  -1.3524  -1.3494
    -1.3487  -1.3461  -1.3426  -1.3211  -1.3208  -1.3063  -1.3052  -1.2929
    -1.2829  -1.2695  -1.2687  -1.2383  -1.2378  -1.2299  -1.2297  -1.1947
    -1.1939  -1.1861  -1.1855  -1.1773  -1.1769  -1.1556  -1.1552  -1.1434
    -1.1368  -1.1364  -1.1236  -1.1232  -1.1225  -1.1218  -1.1080  -1.0976
    -1.0969  -1.0897  -1.0895  -1.0775  -1.0729  -1.0724  -1.0659  -1.0270
    -1.0243  -1.0186  -1.0181  -1.0180  -1.0148  -0.9772  -0.9610  -0.9600
    -0.9599  -0.9594  -0.9550  -0.9548  -0.9501  -0.9365  -0.9355  -0.8985
    -0.8977  -0.8911  -0.8910  -0.8682  -0.8679  -0.8581  -0.8284  -0.8207
    -0.7935  -0.7929  -0.7653  -0.7651  -0.7621  -0.7613  -0.7604  -0.7569
    -0.7531  -0.7511  -0.7466  -0.7462  -0.7144  -0.7140  -0.6967  -0.6953
    -0.6908  -0.6905  -0.6891  -0.6881  -0.6701  -0.3919  -0.3858  -0.3294
    -0.3261  -0.2887  -0.1280  -0.0630  -0.0624  -0.0314   0.2562   0.2568
     0.5851   0.5882   0.6853   0.6855   0.7260   0.7274   0.8692   0.8711
     0.9944   0.9956   1.0820   1.6813   1.6996   1.7002   1.7404   1.7436
     1.7855   1.7921   1.8690   1.8708   2.0768   2.0775   2.3107   2.3905
     2.3941   2.4081   2.7859   2.7914   2.8621   2.8642   2.8696   2.8705
     3.0215   3.0222   3.0639   3.1636   3.1668   3.3930   3.4032   3.5318
     3.5585   3.5599   3.8292   3.8315   3.9421   3.9623   3.9625   4.0128
     4.0266   4.1486   4.1503   4.3856   4.3874   4.4698   4.4746   4.5981
     4.5990   4.6067   4.6204   4.6268   4.7874   5.3992   5.4015   5.4371
     5.5276   5.5312   5.5989   5.7060   5.7113   5.7118   5.7336   5.8237
     5.8242   5.8793   5.8801   5.9227   5.9526   6.0522   6.0758   6.1629
     6.1709   6.1882   6.1937   6.2056   6.2189   6.2215   6.2294   6.2342

          k =-0.2500 0.2500-0.0833 (167653 PWs)   bands (ev):

   -19.4566  -7.2700  -6.7440  -6.2159  -6.2148  -5.7858  -5.3769  -5.2840
    -5.2829  -5.0875  -5.0875  -4.9704  -4.9688  -4.8911  -4.8681  -4.7951
    -4.7100  -4.7065  -4.6677  -4.6674  -4.5065  -4.4896  -4.4891  -4.4882
    -4.4820  -4.4260  -4.4259  -4.4144  -4.4135  -4.3770  -4.3649  -4.3636
    -4.3223  -4.3221  -4.2886  -4.2875  -4.2360  -4.2348  -4.2246  -4.2233
    -4.2183  -4.2050  -4.2049  -4.1634  -4.1457  -4.1452  -4.1388  -4.1383
    -4.1065  -4.0565  -4.0417  -4.0409  -4.0376  -4.0368  -4.0293  -4.0241
    -4.0235  -4.0233  -3.9590  -3.9576  -3.9088  -3.9079  -3.8961  -3.8700
    -3.8697  -3.8496  -3.8475  -3.8470  -3.8429  -3.8396  -3.7907  -3.7907
    -3.7779  -3.7771  -3.6728  -3.6720  -3.6666  -3.6655  -3.6287  -3.6183
    -3.6063  -3.5756  -3.5754  -3.5471  -3.5467  -3.5250  -3.5248  -3.5116
    -3.5111  -3.5018  -3.4564  -3.4558  -3.4368  -3.4228  -3.4104  -3.4093
    -3.4089  -3.4077  -3.3807  -3.3802  -3.3441  -3.3437  -3.3215  -3.3208
    -3.2888  -3.2881  -3.2699  -3.2426  -3.2424  -3.2054  -3.2048  -3.1696
    -3.1623  -3.1613  -3.1477  -3.1469  -3.1424  -3.1420  -3.1027  -3.0942
    -3.0526  -3.0526  -3.0448  -3.0351  -3.0348  -3.0328  -3.0088  -3.0087
    -2.9876  -2.9873  -2.9861  -2.9598  -2.9598  -2.9523  -2.9495  -2.9494
    -2.9138  -2.9086  -2.8741  -2.8732  -2.8727  -2.8698  -2.8696  -2.7907
    -2.7806  -2.7768  -2.7756  -2.7748  -2.7742  -2.7696  -2.7694  -2.7693
    -2.7682  -2.7595  -2.7517  -2.7346  -2.7320  -2.7318  -2.7306  -2.7165
    -2.7116  -2.6735  -2.6730  -2.6726  -2.6692  -2.6678  -2.6505  -2.6498
    -2.6411  -2.6411  -2.6389  -2.5794  -2.5792  -2.5739  -2.5738  -2.5688
    -2.5686  -2.5405  -2.4812  -2.4804  -2.4797  -2.4784  -2.4667  -2.4646
    -2.4596  -2.4487  -2.4482  -2.4122  -2.4107  -2.4032  -2.4021  -2.4014
    -2.4013  -2.3623  -2.3615  -2.3521  -2.3520  -2.3505  -2.3499  -2.3082
    -2.2921  -2.2870  -2.2337  -2.2330  -2.2146  -2.2133  -2.2079  -2.2077
    -2.1598  -2.1581  -2.1354  -2.1190  -2.1051  -2.1040  -2.1037  -2.0821
    -2.0817  -2.0722  -2.0555  -2.0142  -2.0131  -2.0013  -2.0012  -1.9996
    -1.9891  -1.9887  -1.9736  -1.9731  -1.9715  -1.9689  -1.9653  -1.9645
    -1.9622  -1.9516  -1.9507  -1.9336  -1.9330  -1.9310  -1.9250  -1.9222
    -1.9214  -1.8983  -1.8975  -1.8866  -1.8844  -1.8807  -1.8791  -1.8412
    -1.8081  -1.8066  -1.7719  -1.7549  -1.7542  -1.7441  -1.7432  -1.7205
    -1.7197  -1.7055  -1.7048  -1.7035  -1.7034  -1.7008  -1.6998  -1.6681
    -1.6677  -1.6671  -1.6217  -1.6209  -1.5818  -1.5808  -1.5343  -1.5342
    -1.5218  -1.4991  -1.4935  -1.4920  -1.4757  -1.4737  -1.4668  -1.4564
    -1.4538  -1.4513  -1.4503  -1.4493  -1.4478  -1.4462  -1.4456  -1.4255
    -1.4253  -1.4146  -1.3976  -1.3784  -1.3783  -1.3526  -1.3522  -1.3496
    -1.3486  -1.3453  -1.3426  -1.3215  -1.3205  -1.3070  -1.3045  -1.2927
    -1.2829  -1.2697  -1.2684  -1.2384  -1.2377  -1.2301  -1.2296  -1.1951
    -1.1934  -1.1864  -1.1853  -1.1775  -1.1768  -1.1558  -1.1550  -1.1434
    -1.1370  -1.1362  -1.1238  -1.1234  -1.1224  -1.1215  -1.1081  -1.0975
    -1.0969  -1.0898  -1.0894  -1.0774  -1.0733  -1.0722  -1.0659  -1.0270
    -1.0241  -1.0186  -1.0181  -1.0181  -1.0148  -0.9772  -0.9615  -0.9600
    -0.9597  -0.9592  -0.9552  -0.9548  -0.9501  -0.9364  -0.9356  -0.8988
    -0.8974  -0.8911  -0.8909  -0.8683  -0.8678  -0.8581  -0.8284  -0.8207
    -0.7937  -0.7927  -0.7654  -0.7650  -0.7621  -0.7613  -0.7605  -0.7569
    -0.7531  -0.7511  -0.7467  -0.7460  -0.7146  -0.7139  -0.6971  -0.6948
    -0.6910  -0.6902  -0.6895  -0.6878  -0.6701  -0.3919  -0.3858  -0.3306
    -0.3250  -0.2887  -0.1279  -0.0633  -0.0621  -0.0314   0.2558   0.2571
     0.5840   0.5893   0.6852   0.6857   0.7255   0.7280   0.8682   0.8719
     0.9944   0.9956   1.0822   1.6814   1.6996   1.7001   1.7401   1.7436
     1.7828   1.7946   1.8682   1.8717   2.0765   2.0779   2.3107   2.3893
     2.3953   2.4082   2.7836   2.7933   2.8620   2.8644   2.8692   2.8709
     3.0215   3.0221   3.0632   3.1617   3.1697   3.3929   3.4038   3.5317
     3.5578   3.5605   3.8280   3.8327   3.9425   3.9621   3.9628   4.0184
     4.0229   4.1480   4.1510   4.3856   4.3874   4.4733   4.4744   4.5750
     4.5983   4.6042   4.6179   4.6308   4.8069   5.3839   5.4123   5.4748
     5.5215   5.5352   5.6075   5.6425   5.7089   5.7129   5.7367   5.8232
     5.8247   5.8788   5.8807   5.9235   5.9582   5.9906   6.1374   6.1491
     6.1715   6.1939   6.2050   6.2175   6.2216   6.2273   6.2294   6.2333

          k = 0.2500-0.2500-0.0833 (167653 PWs)   bands (ev):

   -19.4566  -7.2700  -6.7440  -6.2159  -6.2148  -5.7858  -5.3769  -5.2840
    -5.2829  -5.0875  -5.0875  -4.9704  -4.9688  -4.8911  -4.8681  -4.7951
    -4.7100  -4.7065  -4.6677  -4.6674  -4.5065  -4.4896  -4.4891  -4.4882
    -4.4820  -4.4260  -4.4259  -4.4144  -4.4135  -4.3770  -4.3649  -4.3636
    -4.3223  -4.3221  -4.2886  -4.2875  -4.2360  -4.2348  -4.2246  -4.2233
    -4.2183  -4.2050  -4.2049  -4.1634  -4.1457  -4.1452  -4.1388  -4.1383
    -4.1065  -4.0565  -4.0417  -4.0409  -4.0376  -4.0368  -4.0293  -4.0241
    -4.0235  -4.0233  -3.9590  -3.9576  -3.9088  -3.9079  -3.8961  -3.8700
    -3.8697  -3.8496  -3.8475  -3.8470  -3.8429  -3.8396  -3.7907  -3.7907
    -3.7779  -3.7771  -3.6728  -3.6720  -3.6666  -3.6655  -3.6287  -3.6183
    -3.6063  -3.5756  -3.5754  -3.5471  -3.5467  -3.5250  -3.5248  -3.5116
    -3.5111  -3.5018  -3.4564  -3.4558  -3.4368  -3.4228  -3.4104  -3.4093
    -3.4089  -3.4077  -3.3807  -3.3802  -3.3441  -3.3437  -3.3215  -3.3208
    -3.2888  -3.2881  -3.2699  -3.2426  -3.2424  -3.2054  -3.2048  -3.1696
    -3.1623  -3.1613  -3.1477  -3.1469  -3.1424  -3.1420  -3.1027  -3.0942
    -3.0526  -3.0526  -3.0448  -3.0351  -3.0348  -3.0328  -3.0088  -3.0087
    -2.9876  -2.9873  -2.9861  -2.9598  -2.9598  -2.9523  -2.9495  -2.9494
    -2.9138  -2.9086  -2.8741  -2.8732  -2.8727  -2.8698  -2.8696  -2.7907
    -2.7806  -2.7768  -2.7756  -2.7748  -2.7742  -2.7696  -2.7694  -2.7693
    -2.7682  -2.7595  -2.7517  -2.7346  -2.7320  -2.7318  -2.7306  -2.7165
    -2.7116  -2.6735  -2.6730  -2.6726  -2.6692  -2.6678  -2.6505  -2.6498
    -2.6411  -2.6411  -2.6389  -2.5794  -2.5792  -2.5739  -2.5738  -2.5688
    -2.5686  -2.5405  -2.4812  -2.4804  -2.4797  -2.4784  -2.4667  -2.4646
    -2.4596  -2.4487  -2.4482  -2.4122  -2.4107  -2.4032  -2.4021  -2.4014
    -2.4013  -2.3623  -2.3615  -2.3521  -2.3520  -2.3505  -2.3499  -2.3082
    -2.2921  -2.2870  -2.2337  -2.2330  -2.2146  -2.2133  -2.2079  -2.2077
    -2.1598  -2.1581  -2.1354  -2.1190  -2.1051  -2.1040  -2.1037  -2.0821
    -2.0817  -2.0722  -2.0555  -2.0142  -2.0131  -2.0013  -2.0012  -1.9996
    -1.9891  -1.9887  -1.9736  -1.9731  -1.9715  -1.9689  -1.9653  -1.9645
    -1.9622  -1.9516  -1.9507  -1.9336  -1.9330  -1.9310  -1.9250  -1.9222
    -1.9214  -1.8983  -1.8975  -1.8866  -1.8844  -1.8807  -1.8791  -1.8412
    -1.8081  -1.8066  -1.7719  -1.7549  -1.7542  -1.7441  -1.7432  -1.7205
    -1.7197  -1.7055  -1.7048  -1.7035  -1.7034  -1.7008  -1.6998  -1.6681
    -1.6677  -1.6671  -1.6217  -1.6209  -1.5818  -1.5808  -1.5343  -1.5342
    -1.5218  -1.4991  -1.4935  -1.4920  -1.4757  -1.4737  -1.4668  -1.4564
    -1.4538  -1.4513  -1.4503  -1.4493  -1.4478  -1.4462  -1.4456  -1.4255
    -1.4253  -1.4146  -1.3976  -1.3784  -1.3783  -1.3526  -1.3522  -1.3496
    -1.3486  -1.3453  -1.3426  -1.3215  -1.3205  -1.3070  -1.3045  -1.2927
    -1.2829  -1.2697  -1.2684  -1.2384  -1.2377  -1.2301  -1.2296  -1.1951
    -1.1934  -1.1864  -1.1853  -1.1775  -1.1768  -1.1558  -1.1550  -1.1434
    -1.1370  -1.1362  -1.1238  -1.1234  -1.1224  -1.1215  -1.1081  -1.0975
    -1.0969  -1.0898  -1.0894  -1.0774  -1.0733  -1.0722  -1.0659  -1.0270
    -1.0241  -1.0186  -1.0181  -1.0181  -1.0148  -0.9772  -0.9615  -0.9600
    -0.9597  -0.9592  -0.9552  -0.9548  -0.9501  -0.9364  -0.9356  -0.8988
    -0.8974  -0.8911  -0.8909  -0.8683  -0.8678  -0.8581  -0.8284  -0.8207
    -0.7937  -0.7927  -0.7654  -0.7650  -0.7621  -0.7613  -0.7605  -0.7569
    -0.7531  -0.7511  -0.7467  -0.7460  -0.7146  -0.7139  -0.6971  -0.6948
    -0.6910  -0.6902  -0.6895  -0.6878  -0.6701  -0.3919  -0.3858  -0.3306
    -0.3250  -0.2887  -0.1279  -0.0633  -0.0621  -0.0314   0.2558   0.2571
     0.5840   0.5893   0.6852   0.6857   0.7255   0.7280   0.8682   0.8719
     0.9944   0.9956   1.0822   1.6814   1.6996   1.7001   1.7401   1.7436
     1.7828   1.7946   1.8682   1.8717   2.0765   2.0779   2.3107   2.3893
     2.3953   2.4082   2.7836   2.7933   2.8620   2.8644   2.8692   2.8709
     3.0215   3.0221   3.0632   3.1617   3.1697   3.3929   3.4038   3.5317
     3.5578   3.5605   3.8280   3.8327   3.9425   3.9621   3.9628   4.0184
     4.0229   4.1480   4.1510   4.3856   4.3874   4.4733   4.4744   4.5750
     4.5983   4.6042   4.6179   4.6308   4.8069   5.3839   5.4124   5.4747
     5.5215   5.5352   5.6079   5.6421   5.7089   5.7129   5.7367   5.8232
     5.8248   5.8788   5.8807   5.9235   5.9582   5.9906   6.1366   6.1496
     6.1716   6.1941   6.2050   6.2175   6.2217   6.2278   6.2288   6.2337

          k =-0.2500 0.2500 0.2500 (167588 PWs)   bands (ev):

   -19.4566  -7.2700  -6.7440  -6.2159  -6.2148  -5.7858  -5.3769  -5.2840
    -5.2829  -5.0875  -5.0875  -4.9704  -4.9688  -4.8911  -4.8681  -4.7951
    -4.7100  -4.7065  -4.6677  -4.6674  -4.5065  -4.4896  -4.4891  -4.4882
    -4.4820  -4.4260  -4.4259  -4.4144  -4.4135  -4.3770  -4.3649  -4.3636
    -4.3223  -4.3221  -4.2886  -4.2875  -4.2360  -4.2348  -4.2246  -4.2233
    -4.2183  -4.2050  -4.2049  -4.1634  -4.1457  -4.1452  -4.1388  -4.1383
    -4.1065  -4.0565  -4.0417  -4.0408  -4.0376  -4.0368  -4.0293  -4.0241
    -4.0235  -4.0233  -3.9590  -3.9576  -3.9088  -3.9079  -3.8961  -3.8700
    -3.8697  -3.8495  -3.8475  -3.8470  -3.8429  -3.8396  -3.7907  -3.7907
    -3.7779  -3.7771  -3.6728  -3.6720  -3.6666  -3.6655  -3.6287  -3.6183
    -3.6063  -3.5756  -3.5754  -3.5471  -3.5467  -3.5250  -3.5248  -3.5116
    -3.5111  -3.5018  -3.4564  -3.4558  -3.4368  -3.4228  -3.4104  -3.4093
    -3.4089  -3.4077  -3.3807  -3.3802  -3.3441  -3.3437  -3.3215  -3.3208
    -3.2888  -3.2881  -3.2699  -3.2426  -3.2424  -3.2054  -3.2048  -3.1696
    -3.1623  -3.1613  -3.1477  -3.1469  -3.1424  -3.1420  -3.1027  -3.0942
    -3.0526  -3.0526  -3.0448  -3.0351  -3.0348  -3.0328  -3.0088  -3.0087
    -2.9876  -2.9873  -2.9861  -2.9598  -2.9598  -2.9523  -2.9495  -2.9494
    -2.9138  -2.9086  -2.8741  -2.8732  -2.8727  -2.8698  -2.8696  -2.7907
    -2.7806  -2.7768  -2.7756  -2.7748  -2.7742  -2.7696  -2.7694  -2.7693
    -2.7682  -2.7595  -2.7517  -2.7346  -2.7320  -2.7318  -2.7306  -2.7165
    -2.7116  -2.6735  -2.6730  -2.6726  -2.6692  -2.6678  -2.6505  -2.6497
    -2.6411  -2.6411  -2.6389  -2.5794  -2.5792  -2.5739  -2.5738  -2.5688
    -2.5686  -2.5405  -2.4812  -2.4804  -2.4797  -2.4784  -2.4667  -2.4646
    -2.4596  -2.4487  -2.4482  -2.4122  -2.4107  -2.4032  -2.4021  -2.4014
    -2.4013  -2.3623  -2.3615  -2.3521  -2.3520  -2.3505  -2.3500  -2.3082
    -2.2921  -2.2870  -2.2336  -2.2330  -2.2146  -2.2133  -2.2080  -2.2077
    -2.1598  -2.1581  -2.1354  -2.1190  -2.1051  -2.1040  -2.1037  -2.0821
    -2.0817  -2.0722  -2.0555  -2.0142  -2.0131  -2.0013  -2.0012  -1.9996
    -1.9891  -1.9887  -1.9736  -1.9731  -1.9715  -1.9689  -1.9653  -1.9645
    -1.9622  -1.9516  -1.9507  -1.9336  -1.9330  -1.9310  -1.9250  -1.9222
    -1.9214  -1.8983  -1.8975  -1.8866  -1.8844  -1.8807  -1.8790  -1.8413
    -1.8081  -1.8066  -1.7719  -1.7549  -1.7542  -1.7441  -1.7432  -1.7205
    -1.7197  -1.7055  -1.7047  -1.7035  -1.7034  -1.7008  -1.6998  -1.6681
    -1.6677  -1.6671  -1.6217  -1.6209  -1.5818  -1.5808  -1.5343  -1.5342
    -1.5218  -1.4991  -1.4935  -1.4920  -1.4757  -1.4737  -1.4668  -1.4564
    -1.4538  -1.4513  -1.4503  -1.4493  -1.4478  -1.4462  -1.4456  -1.4255
    -1.4253  -1.4146  -1.3976  -1.3784  -1.3783  -1.3526  -1.3522  -1.3496
    -1.3486  -1.3453  -1.3426  -1.3215  -1.3205  -1.3070  -1.3045  -1.2927
    -1.2829  -1.2697  -1.2684  -1.2385  -1.2377  -1.2301  -1.2296  -1.1951
    -1.1934  -1.1864  -1.1853  -1.1775  -1.1768  -1.1558  -1.1550  -1.1434
    -1.1370  -1.1362  -1.1238  -1.1233  -1.1224  -1.1214  -1.1081  -1.0975
    -1.0970  -1.0898  -1.0894  -1.0774  -1.0733  -1.0722  -1.0659  -1.0270
    -1.0241  -1.0186  -1.0181  -1.0181  -1.0148  -0.9772  -0.9615  -0.9600
    -0.9597  -0.9592  -0.9552  -0.9548  -0.9501  -0.9364  -0.9356  -0.8988
    -0.8974  -0.8911  -0.8909  -0.8683  -0.8678  -0.8581  -0.8284  -0.8207
    -0.7937  -0.7927  -0.7654  -0.7650  -0.7621  -0.7613  -0.7605  -0.7569
    -0.7531  -0.7511  -0.7467  -0.7460  -0.7146  -0.7139  -0.6972  -0.6948
    -0.6910  -0.6902  -0.6895  -0.6878  -0.6701  -0.3919  -0.3858  -0.3306
    -0.3250  -0.2887  -0.1279  -0.0633  -0.0621  -0.0314   0.2558   0.2571
     0.5840   0.5893   0.6852   0.6857   0.7255   0.7280   0.8682   0.8719
     0.9944   0.9956   1.0821   1.6814   1.6996   1.7001   1.7401   1.7436
     1.7828   1.7946   1.8682   1.8717   2.0765   2.0779   2.3107   2.3893
     2.3953   2.4082   2.7836   2.7933   2.8620   2.8644   2.8692   2.8709
     3.0215   3.0221   3.0632   3.1617   3.1697   3.3929   3.4038   3.5317
     3.5578   3.5606   3.8280   3.8327   3.9425   3.9621   3.9628   4.0185
     4.0231   4.1480   4.1510   4.3856   4.3874   4.4733   4.4744   4.5734
     4.5983   4.6041   4.6179   4.6307   4.8059   5.3841   5.4048   5.4624
     5.5208   5.5348   5.5886   5.7089   5.7128   5.7273   5.7321   5.8231
     5.8249   5.8788   5.8807   5.9236   5.9783   6.0349   6.0633   6.1760
     6.1856   6.1911   6.2052   6.2174   6.2235   6.2293   6.2357   6.2385

     the Fermi energy is     0.9445 ev

!    total energy              =   -7425.29148182 Ry
     Harris-Foulkes estimate   =   -7425.29148180 Ry
     estimated scf accuracy    <          6.0E-09 Ry

     The total energy is the sum of the following terms:

     one-electron contribution =  -48475.77154536 Ry
     hartree contribution      =   24791.01605438 Ry
     xc contribution           =   -3604.19645480 Ry
     ewald contribution        =   19863.66338220 Ry
     smearing contrib. (-TS)   =      -0.00291825 Ry

     convergence has been achieved in  29 iterations

     Writing output data file 2540763.save

     init_run     :    150.90s CPU    156.52s WALL (       1 calls)
     electrons    :   8370.22s CPU   8823.00s WALL (       1 calls)

     Called by init_run:
     wfcinit      :     98.14s CPU    103.02s WALL (       1 calls)
     potinit      :     18.90s CPU     19.31s WALL (       1 calls)

     Called by electrons:
     c_bands      :   6435.13s CPU   6787.84s WALL (      30 calls)
     sum_band     :   1160.71s CPU   1228.85s WALL (      30 calls)
     v_of_rho     :    143.97s CPU    155.98s WALL (      30 calls)
     newd         :    659.76s CPU    677.81s WALL (      30 calls)
     mix_rho      :      3.50s CPU      3.90s WALL (      30 calls)
     vdW_energy   :      9.47s CPU     10.26s WALL (      30 calls)
     vdW_ffts     :     77.02s CPU     82.72s WALL (      60 calls)
     vdW_v        :     16.88s CPU     18.10s WALL (      30 calls)

     Called by c_bands:
     init_us_2    :      9.68s CPU      9.99s WALL (     366 calls)
     cegterg      :   6306.82s CPU   6657.25s WALL (     180 calls)

     Called by *egterg:
     h_psi        :   2647.88s CPU   2940.08s WALL (     903 calls)
     s_psi        :    239.51s CPU    243.23s WALL (     903 calls)
     g_psi        :      5.48s CPU      5.51s WALL (     717 calls)
     cdiaghg      :   1493.31s CPU   1504.82s WALL (     891 calls)

     Called by h_psi:
     add_vuspsi   :    241.65s CPU    245.60s WALL (     903 calls)

     General routines
     calbec       :    562.67s CPU    567.73s WALL (    1083 calls)
     fft          :    358.11s CPU    371.06s WALL (    1980 calls)
     ffts         :      1.96s CPU      2.23s WALL (      60 calls)
     fftw         :   2282.42s CPU   2599.69s WALL (  483210 calls)
     interpolate  :      5.37s CPU      6.10s WALL (      60 calls)
     davcio       :      0.00s CPU      0.11s WALL (       6 calls)

     Parallel routines
     fft_scatter  :   2043.06s CPU   2328.87s WALL (  485250 calls)

     PWSCF        :     2h22m CPU        2h30m WALL


   This run was terminated on:  20:37:23  29Aug2015            

=------------------------------------------------------------------------------=
   JOB DONE.
=------------------------------------------------------------------------------=
