Setting SGE environment for SCC

     Program PWSCF v.5.1.2 starts on 23Jun2015 at 14: 5:45 

     This program is part of the open-source Quantum ESPRESSO suite
     for quantum simulation of materials; please cite
         "P. Giannozzi et al., J. Phys.:Condens. Matter 21 395502 (2009);
          URL http://www.quantum-espresso.org", 
     in publications or presentations arising from this work. More details at
     http://www.quantum-espresso.org/quote

     Parallel version (MPI), running on    32 processors
     R & G space division:  proc/nbgrp/npool/nimage =      32
     Reading input from top.O1.Au62.d.3.0.phi.0.psi.0.in
Warning: card &IONS ignored
Warning: card / ignored
Warning: card &CELL ignored
Warning: card / ignored

     Current dimensions of program PWSCF are:
     Max number of different atomic species (ntypx) = 10
     Max number of k-points (npk) =  40000
     Max angular momentum in pseudopotentials (lmaxx) =  3

     IMPORTANT: XC functional enforced from input :
     Exchange-correlation      = VDW-DF ( 1  4  4  0 1 0)
     Any further DFT definition will be discarded
     Please, verify this is what you really want


     Subspace diagonalization in iterative solution of the eigenvalue problem:
     a serial algorithm will be used


     Parallelization info
     --------------------
     sticks:   dense  smooth     PW     G-vecs:    dense   smooth      PW
     Min         578     289     74               118518    41891    5486
     Max         579     290     75               118533    41932    5497
     Sum       18505    9265   2385              3792731  1341081  175711


     Title: 
     top.O1.Au62.d.3.0.phi.0.psi.0                                              


     bravais-lattice index     =            8
     lattice parameter (alat)  =      24.1233  a.u.
     unit-cell volume          =   28076.2361 (a.u.)^3
     number of atoms/cell      =           75
     number of atomic types    =            3
     number of electrons       =       800.00
     number of Kohn-Sham states=          480
     kinetic-energy cutoff     =      50.0000  Ry
     charge density cutoff     =     400.0000  Ry
     convergence threshold     =      1.0E-08
     mixing beta               =       0.7000
     number of iterations used =            8  plain     mixing
     Exchange-correlation      = VDW-DF ( 1  4  4  0 1 0)

     celldm(1)=  24.123277  celldm(2)=   1.000000  celldm(3)=   2.000000
     celldm(4)=   0.000000  celldm(5)=   0.000000  celldm(6)=   0.000000

     crystal axes: (cart. coord. in units of alat)
               a(1) = (   1.000000   0.000000   0.000000 )  
               a(2) = (   0.000000   1.000000   0.000000 )  
               a(3) = (   0.000000   0.000000   2.000000 )  

     reciprocal axes: (cart. coord. in units 2 pi/alat)
               b(1) = (  1.000000  0.000000  0.000000 )  
               b(2) = (  0.000000  1.000000  0.000000 )  
               b(3) = (  0.000000  0.000000  0.500000 )  


     PseudoPot. # 1 for Au read from file:
     /home/scc/andrejb/qe/pseudo/Au.pbe-nd-van.UPF
     MD5 check sum: 458681b50f36d87ef23c61b04bba420a
     Pseudo is Ultrasoft + core correction, Zval = 11.0
     Generated by new atomic code, or converted to UPF format
     Using radial grid of  985 points,  3 beta functions with: 
                l(1) =   1
                l(2) =   2
                l(3) =   2
     Q(r) pseudized with  8 coefficients,  rinner =    1.100   1.100   1.100
                                                       1.100   1.100

     PseudoPot. # 2 for H  read from file:
     /home/scc/andrejb/qe/pseudo/H.pbe-van_ak.UPF
     MD5 check sum: 403db7282739603aa925980fa9b8608d
     Pseudo is Ultrasoft, Zval =  1.0
     Generated by new atomic code, or converted to UPF format
     Using radial grid of  615 points,  1 beta functions with: 
                l(1) =   0
     Q(r) pseudized with  8 coefficients,  rinner =    0.800

     PseudoPot. # 3 for O  read from file:
     /home/scc/andrejb/qe/pseudo/O.pbe-van_ak.UPF
     MD5 check sum: 4b8c549914a63cae506c6ff22b5af4fe
     Pseudo is Ultrasoft, Zval =  6.0
     Generated by new atomic code, or converted to UPF format
     Using radial grid of  737 points,  4 beta functions with: 
                l(1) =   0
                l(2) =   0
                l(3) =   1
                l(4) =   1
     Q(r) pseudized with  8 coefficients,  rinner =    0.800   0.800   0.800


     vdW kernel table read from file vdW_kernel_table
     MD5 check sum: 48e77a2e26edf626eeb0eaa751ad5cac

     atomic species   valence    mass     pseudopotential
        Au            11.00   196.96657     Au( 1.00)
        H              1.00     1.01000     H ( 1.00)
        O              6.00    16.00000     O ( 1.00)

     No symmetry found



   Cartesian axes

     site n.     atom                  positions (alat units)
         1           O   tau(   1) = (   0.4998324   0.3332216   0.7343272  )
         2           H   tau(   2) = (   0.4527548   0.2940501   0.7798211  )
         3           H   tau(   3) = (   0.5454827   0.3712232   0.7821848  )
         4           Au  tau(   4) = (   0.0000000   0.0000000   0.0000000  )
         5           Au  tau(   5) = (   0.3332217   0.0000000   0.0000000  )
         6           Au  tau(   6) = (   0.6664435   0.0000000   0.0000000  )
         7           Au  tau(   7) = (   0.1666109   0.1666109   0.0000000  )
         8           Au  tau(   8) = (   0.4998326   0.1666109   0.0000000  )
         9           Au  tau(   9) = (   0.8330542   0.1666109   0.0000000  )
        10           Au  tau(  10) = (   0.0000000   0.3332217   0.0000000  )
        11           Au  tau(  11) = (   0.3332217   0.3332217   0.0000000  )
        12           Au  tau(  12) = (   0.6664435   0.3332217   0.0000000  )
        13           Au  tau(  13) = (   0.1666109   0.4998326   0.0000000  )
        14           Au  tau(  14) = (   0.4998326   0.4998326   0.0000000  )
        15           Au  tau(  15) = (   0.8330542   0.4998326   0.0000000  )
        16           Au  tau(  16) = (   0.0000000   0.6664435   0.0000000  )
        17           Au  tau(  17) = (   0.3332217   0.6664435   0.0000000  )
        18           Au  tau(  18) = (   0.6664435   0.6664435   0.0000000  )
        19           Au  tau(  19) = (   0.1666109   0.8330542   0.0000000  )
        20           Au  tau(  20) = (   0.4998326   0.8330542   0.0000000  )
        21           Au  tau(  21) = (   0.8330542   0.8330542   0.0000000  )
        22           Au  tau(  22) = (   0.1666109   0.0000000   0.1666109  )
        23           Au  tau(  23) = (   0.4998326   0.0000000   0.1666109  )
        24           Au  tau(  24) = (   0.8330542   0.0000000   0.1666109  )
        25           Au  tau(  25) = (   0.0000000   0.1666109   0.1666109  )
        26           Au  tau(  26) = (   0.3332217   0.1666109   0.1666109  )
        27           Au  tau(  27) = (   0.6664435   0.1666109   0.1666109  )
        28           Au  tau(  28) = (   0.1666109   0.3332217   0.1666109  )
        29           Au  tau(  29) = (   0.4998326   0.3332217   0.1666109  )
        30           Au  tau(  30) = (   0.8330542   0.3332217   0.1666109  )
        31           Au  tau(  31) = (   0.0000000   0.4998326   0.1666109  )
        32           Au  tau(  32) = (   0.3332217   0.4998326   0.1666109  )
        33           Au  tau(  33) = (   0.6664435   0.4998326   0.1666109  )
        34           Au  tau(  34) = (   0.1666109   0.6664435   0.1666109  )
        35           Au  tau(  35) = (   0.4998326   0.6664435   0.1666109  )
        36           Au  tau(  36) = (   0.8330542   0.6664435   0.1666109  )
        37           Au  tau(  37) = (   0.0000000   0.8330542   0.1666109  )
        38           Au  tau(  38) = (   0.3332217   0.8330542   0.1666109  )
        39           Au  tau(  39) = (   0.6664435   0.8330542   0.1666109  )
        40           Au  tau(  40) = (  -0.0000182  -0.0000182   0.3335478  )
        41           Au  tau(  41) = (   0.3332215  -0.0000181   0.3335472  )
        42           Au  tau(  42) = (   0.6664447  -0.0000183   0.3335481  )
        43           Au  tau(  43) = (  -0.0000181   0.3332215   0.3335472  )
        44           Au  tau(  44) = (   0.3332215   0.3332215   0.3335468  )
        45           Au  tau(  45) = (   0.6664445   0.3332215   0.3335478  )
        46           Au  tau(  46) = (  -0.0000183   0.6664447   0.3335481  )
        47           Au  tau(  47) = (   0.3332215   0.6664445   0.3335478  )
        48           Au  tau(  48) = (   0.6664446   0.6664446   0.3335486  )
        49           Au  tau(  49) = (   0.1666097   0.1666097   0.3335483  )
        50           Au  tau(  50) = (   0.4998320   0.1666098   0.3335477  )
        51           Au  tau(  51) = (   0.8330732   0.1666096   0.3335481  )
        52           Au  tau(  52) = (   0.1666098   0.4998320   0.3335477  )
        53           Au  tau(  53) = (   0.4998321   0.4998321   0.3335470  )
        54           Au  tau(  54) = (   0.8330730   0.4998322   0.3335474  )
        55           Au  tau(  55) = (   0.1666096   0.8330732   0.3335481  )
        56           Au  tau(  56) = (   0.4998322   0.8330730   0.3335474  )
        57           Au  tau(  57) = (   0.8330731   0.8330731   0.3335478  )
        58           Au  tau(  58) = (   0.1666104  -0.0000111   0.4993095  )
        59           Au  tau(  59) = (   0.4998323  -0.0000112   0.4993099  )
        60           Au  tau(  60) = (   0.8330661  -0.0000111   0.4993009  )
        61           Au  tau(  61) = (  -0.0000111   0.1666104   0.4993095  )
        62           Au  tau(  62) = (   0.3332214   0.1666106   0.4993185  )
        63           Au  tau(  63) = (   0.6664437   0.1666106   0.4993187  )
        64           Au  tau(  64) = (   0.1666106   0.3332214   0.4993185  )
        65           Au  tau(  65) = (   0.4998324   0.3332216   0.4993185  )
        66           Au  tau(  66) = (   0.8330659   0.3332215   0.4993103  )
        67           Au  tau(  67) = (  -0.0000112   0.4998323   0.4993099  )
        68           Au  tau(  68) = (   0.3332216   0.4998324   0.4993185  )
        69           Au  tau(  69) = (   0.6664436   0.4998325   0.4993187  )
        70           Au  tau(  70) = (   0.1666106   0.6664437   0.4993187  )
        71           Au  tau(  71) = (   0.4998325   0.6664436   0.4993187  )
        72           Au  tau(  72) = (   0.8330658   0.6664438   0.4993102  )
        73           Au  tau(  73) = (  -0.0000111   0.8330661   0.4993009  )
        74           Au  tau(  74) = (   0.3332215   0.8330659   0.4993103  )
        75           Au  tau(  75) = (   0.6664438   0.8330658   0.4993102  )

     number of k points=     6  Marzari-Vanderbilt smearing, width (Ry)=  0.0200
                       cart. coord. in units 2pi/alat
        k(    1) = (   0.2500000   0.2500000   0.0833333), wk =   0.3333333
        k(    2) = (   0.2500000   0.2500000  -0.2500000), wk =   0.3333333
        k(    3) = (  -0.2500000  -0.2500000   0.0833333), wk =   0.3333333
        k(    4) = (  -0.2500000   0.2500000  -0.0833333), wk =   0.3333333
        k(    5) = (   0.2500000  -0.2500000  -0.0833333), wk =   0.3333333
        k(    6) = (  -0.2500000   0.2500000   0.2500000), wk =   0.3333333

     Dense  grid:  3792731 G-vectors     FFT dimensions: ( 160, 160, 320)

     Smooth grid:  1341081 G-vectors     FFT dimensions: ( 120, 120, 225)

     Largest allocated arrays     est. size (Mb)     dimensions
        Kohn-Sham Wavefunctions        38.58 Mb     (    5267,  480)
        NL pseudopotentials            76.03 Mb     (    5267,  946)
        Each V/rho on FFT grid          3.91 Mb     (  256000)
        Each G-vector array             0.90 Mb     (  118520)
        G-vector shells                 0.08 Mb     (   10286)
     Largest temporary arrays     est. size (Mb)     dimensions
        Auxiliary wavefunctions       154.31 Mb     (    5267, 1920)
        Each subspace H/S matrix       56.25 Mb     (    1920, 1920)
        Each <psi_i|beta_j> matrix      6.93 Mb     (     946,  480)
        Arrays for rho mixing          31.25 Mb     (  256000,    8)

     Initial potential from superposition of free atoms
     Check: negative starting charge=   -1.945070

     starting charge  799.16392, renormalised to  800.00000

     negative rho (up, down):  1.947E+00 0.000E+00


     ************************************************************************
     *
     * You are using vdW-DF for exchange-correlation in this calculation.
     * Please cite the following three references that made this development
     * possible:
     *
     *   M. Dion, H. Rydberg, E. Schroder, D. C. Langreth, and
     *   B. I. Lundqvist, Phys. Rev. Lett. 92, 246401 (2004).
     *
     *   T. Thonhauser, V. R. Cooper, S. Li, A. Puzder, P. Hyldgaard, and
     *   D. C. Langreth, Phys. Rev. B 76, 125112 (2007).
     *
     *   G. Roman-Perez and J. M. Soler, Phys. Rev. Lett. 103, 096102 (2009).
     *
     *
     * If you are using vdW-DF2, please also cite:
     *
     *   K. Lee, E. D. Murray, L. Kong, B. I. Lundqvist, and
     *   D. C. Langreth, Phys. Rev. B 82, 081101(R) (2010).
     *
     *
     * If you are calculating the stress with vdW-DF, please also cite:
     *
     *   R. Sabatini, E. Kucukbenli, B. Kolb, T. Thonhauser, and
     *   S. de Gironcoli, J. Phys.: Condens. Matter 24, 424209 (2012).
     *
     ************************************************************************

     Carrying out vdW-DF run using the following parameters:

     Nqs =      20    Nr_points =    1024   r_max =   100.000
     q_mesh =
               0.00001000     0.04494208     0.09755937     0.15916263
               0.23128650     0.31572767     0.41458969     0.53033537
               0.66584808     0.82450364     1.01025438     1.22772762
               1.48234092     1.78043706     2.12944203     2.53805004
               3.01644009     3.57652955     4.23227104     5.00000000

     Gradients computed in reciprocal space

     ************************************************************************


     Starting wfc are  654 randomized atomic wfcs

     total cpu time spent up to now is      128.7 secs

     Self-consistent Calculation

     iteration #  1     ecut=    50.00 Ry     beta=0.70
     Davidson diagonalization with overlap
     ethr =  1.00E-02,  avg # of iterations =  3.0

     Threshold (ethr) on eigenvalues was too large:
     Diagonalizing with lowered threshold

     Davidson diagonalization with overlap
     ethr =  4.30E-04,  avg # of iterations =  2.5

     negative rho (up, down):  1.947E+00 0.000E+00

     total cpu time spent up to now is      563.8 secs

     total energy              =   -7423.00200978 Ry
     Harris-Foulkes estimate   =   -7426.09380200 Ry
     estimated scf accuracy    <       3.81478932 Ry

     iteration #  2     ecut=    50.00 Ry     beta=0.70
     Davidson diagonalization with overlap
     ethr =  4.77E-04,  avg # of iterations = 11.3

     negative rho (up, down):  1.941E+00 0.000E+00

     total cpu time spent up to now is     1292.7 secs

     total energy              =   -7414.47688837 Ry
     Harris-Foulkes estimate   =   -7432.81140402 Ry
     estimated scf accuracy    <      97.39774010 Ry

     iteration #  3     ecut=    50.00 Ry     beta=0.70
     Davidson diagonalization with overlap
     ethr =  4.77E-04,  avg # of iterations =  6.0

     negative rho (up, down):  1.951E+00 0.000E+00

     total cpu time spent up to now is     1746.9 secs

     total energy              =   -7424.09930357 Ry
     Harris-Foulkes estimate   =   -7425.87733771 Ry
     estimated scf accuracy    <       7.50024247 Ry

     iteration #  4     ecut=    50.00 Ry     beta=0.70
     Davidson diagonalization with overlap
     ethr =  4.77E-04,  avg # of iterations =  6.2

     negative rho (up, down):  1.954E+00 0.000E+00

     total cpu time spent up to now is     2004.9 secs

     total energy              =   -7424.76943587 Ry
     Harris-Foulkes estimate   =   -7425.72485343 Ry
     estimated scf accuracy    <       5.82179211 Ry

     iteration #  5     ecut=    50.00 Ry     beta=0.70
     Davidson diagonalization with overlap
     ethr =  4.77E-04,  avg # of iterations =  6.2

     negative rho (up, down):  1.962E+00 0.000E+00

     total cpu time spent up to now is     2258.9 secs

     total energy              =   -7425.12591694 Ry
     Harris-Foulkes estimate   =   -7425.54299302 Ry
     estimated scf accuracy    <       3.02684379 Ry

     iteration #  6     ecut=    50.00 Ry     beta=0.70
     Davidson diagonalization with overlap
     ethr =  3.78E-04,  avg # of iterations =  3.7

     negative rho (up, down):  1.966E+00 0.000E+00

     total cpu time spent up to now is     2488.4 secs

     total energy              =   -7425.28411877 Ry
     Harris-Foulkes estimate   =   -7425.33190330 Ry
     estimated scf accuracy    <       0.15757564 Ry

     iteration #  7     ecut=    50.00 Ry     beta=0.70
     Davidson diagonalization with overlap
     ethr =  1.97E-05,  avg # of iterations = 10.3

     negative rho (up, down):  1.969E+00 0.000E+00

     total cpu time spent up to now is     2816.1 secs

     total energy              =   -7425.28622668 Ry
     Harris-Foulkes estimate   =   -7425.32332104 Ry
     estimated scf accuracy    <       0.16970763 Ry

     iteration #  8     ecut=    50.00 Ry     beta=0.70
     Davidson diagonalization with overlap
     ethr =  1.97E-05,  avg # of iterations =  3.0

     negative rho (up, down):  1.970E+00 0.000E+00

     total cpu time spent up to now is     3016.7 secs

     total energy              =   -7425.28969504 Ry
     Harris-Foulkes estimate   =   -7425.31075100 Ry
     estimated scf accuracy    <       0.09137305 Ry

     iteration #  9     ecut=    50.00 Ry     beta=0.70
     Davidson diagonalization with overlap
     ethr =  1.14E-05,  avg # of iterations =  6.0

     negative rho (up, down):  1.972E+00 0.000E+00

     total cpu time spent up to now is     3262.8 secs

     total energy              =   -7425.29283090 Ry
     Harris-Foulkes estimate   =   -7425.30374755 Ry
     estimated scf accuracy    <       0.04072706 Ry

     iteration # 10     ecut=    50.00 Ry     beta=0.70
     Davidson diagonalization with overlap
     ethr =  5.09E-06,  avg # of iterations =  6.8

     negative rho (up, down):  1.972E+00 0.000E+00

     total cpu time spent up to now is     3512.3 secs

     total energy              =   -7425.29541958 Ry
     Harris-Foulkes estimate   =   -7425.29833206 Ry
     estimated scf accuracy    <       0.00835735 Ry

     iteration # 11     ecut=    50.00 Ry     beta=0.70
     Davidson diagonalization with overlap
     ethr =  1.04E-06,  avg # of iterations =  9.8

     negative rho (up, down):  1.973E+00 0.000E+00

     total cpu time spent up to now is     3806.7 secs

     total energy              =   -7425.29612352 Ry
     Harris-Foulkes estimate   =   -7425.29706243 Ry
     estimated scf accuracy    <       0.00325977 Ry

     iteration # 12     ecut=    50.00 Ry     beta=0.70
     Davidson diagonalization with overlap
     ethr =  4.07E-07,  avg # of iterations =  2.8

     negative rho (up, down):  1.974E+00 0.000E+00

     total cpu time spent up to now is     3995.8 secs

     total energy              =   -7425.29583827 Ry
     Harris-Foulkes estimate   =   -7425.29655926 Ry
     estimated scf accuracy    <       0.00108049 Ry

     iteration # 13     ecut=    50.00 Ry     beta=0.70
     Davidson diagonalization with overlap
     ethr =  1.35E-07,  avg # of iterations =  8.7

     negative rho (up, down):  1.974E+00 0.000E+00

     total cpu time spent up to now is     4408.1 secs

     total energy              =   -7425.29538109 Ry
     Harris-Foulkes estimate   =   -7425.29708947 Ry
     estimated scf accuracy    <       0.00728776 Ry

     iteration # 14     ecut=    50.00 Ry     beta=0.70
     Davidson diagonalization with overlap
     ethr =  1.35E-07,  avg # of iterations =  3.0

     negative rho (up, down):  1.974E+00 0.000E+00

     total cpu time spent up to now is     4670.1 secs

     total energy              =   -7425.29611779 Ry
     Harris-Foulkes estimate   =   -7425.29628495 Ry
     estimated scf accuracy    <       0.00067738 Ry

     iteration # 15     ecut=    50.00 Ry     beta=0.70
     Davidson diagonalization with overlap
     ethr =  8.47E-08,  avg # of iterations =  2.0

     negative rho (up, down):  1.974E+00 0.000E+00

     total cpu time spent up to now is     4856.1 secs

     total energy              =   -7425.29619682 Ry
     Harris-Foulkes estimate   =   -7425.29625036 Ry
     estimated scf accuracy    <       0.00027147 Ry

     iteration # 16     ecut=    50.00 Ry     beta=0.70
     Davidson diagonalization with overlap
     ethr =  3.39E-08,  avg # of iterations =  2.0

     negative rho (up, down):  1.974E+00 0.000E+00

     total cpu time spent up to now is     5040.6 secs

     total energy              =   -7425.29619656 Ry
     Harris-Foulkes estimate   =   -7425.29625407 Ry
     estimated scf accuracy    <       0.00037265 Ry

     iteration # 17     ecut=    50.00 Ry     beta=0.70
     Davidson diagonalization with overlap
     ethr =  3.39E-08,  avg # of iterations =  1.0

     negative rho (up, down):  1.974E+00 0.000E+00

     total cpu time spent up to now is     5229.3 secs

     total energy              =   -7425.29622134 Ry
     Harris-Foulkes estimate   =   -7425.29623427 Ry
     estimated scf accuracy    <       0.00007475 Ry

     iteration # 18     ecut=    50.00 Ry     beta=0.70
     Davidson diagonalization with overlap
     ethr =  9.34E-09,  avg # of iterations =  2.0

     negative rho (up, down):  1.974E+00 0.000E+00

     total cpu time spent up to now is     5426.3 secs

     total energy              =   -7425.29622788 Ry
     Harris-Foulkes estimate   =   -7425.29622909 Ry
     estimated scf accuracy    <       0.00000491 Ry

     iteration # 19     ecut=    50.00 Ry     beta=0.70
     Davidson diagonalization with overlap
     ethr =  6.14E-10,  avg # of iterations =  3.0

     negative rho (up, down):  1.974E+00 0.000E+00

     total cpu time spent up to now is     5631.6 secs

     total energy              =   -7425.29622852 Ry
     Harris-Foulkes estimate   =   -7425.29622893 Ry
     estimated scf accuracy    <       0.00000141 Ry

     iteration # 20     ecut=    50.00 Ry     beta=0.70
     Davidson diagonalization with overlap
     ethr =  1.76E-10,  avg # of iterations =  3.0

     negative rho (up, down):  1.974E+00 0.000E+00

     total cpu time spent up to now is     5889.7 secs

     total energy              =   -7425.29622872 Ry
     Harris-Foulkes estimate   =   -7425.29622906 Ry
     estimated scf accuracy    <       0.00000203 Ry

     iteration # 21     ecut=    50.00 Ry     beta=0.70
     Davidson diagonalization with overlap
     ethr =  1.76E-10,  avg # of iterations =  2.0

     negative rho (up, down):  1.974E+00 0.000E+00

     total cpu time spent up to now is     6100.9 secs

     total energy              =   -7425.29622894 Ry
     Harris-Foulkes estimate   =   -7425.29622904 Ry
     estimated scf accuracy    <       0.00000071 Ry

     iteration # 22     ecut=    50.00 Ry     beta=0.70
     Davidson diagonalization with overlap
     ethr =  8.86E-11,  avg # of iterations =  2.0

     negative rho (up, down):  1.974E+00 0.000E+00

     total cpu time spent up to now is     6293.4 secs

     total energy              =   -7425.29622901 Ry
     Harris-Foulkes estimate   =   -7425.29622906 Ry
     estimated scf accuracy    <       0.00000016 Ry

     iteration # 23     ecut=    50.00 Ry     beta=0.70
     Davidson diagonalization with overlap
     ethr =  2.03E-11,  avg # of iterations =  3.0

     negative rho (up, down):  1.974E+00 0.000E+00

     total cpu time spent up to now is     6498.0 secs

     total energy              =   -7425.29622903 Ry
     Harris-Foulkes estimate   =   -7425.29622905 Ry
     estimated scf accuracy    <       0.00000007 Ry

     iteration # 24     ecut=    50.00 Ry     beta=0.70
     Davidson diagonalization with overlap
     ethr =  8.98E-12,  avg # of iterations =  2.0

     negative rho (up, down):  1.974E+00 0.000E+00

     total cpu time spent up to now is     6743.2 secs

     total energy              =   -7425.29622906 Ry
     Harris-Foulkes estimate   =   -7425.29622905 Ry
     estimated scf accuracy    <       0.00000006 Ry

     iteration # 25     ecut=    50.00 Ry     beta=0.70
     Davidson diagonalization with overlap
     ethr =  7.38E-12,  avg # of iterations =  2.0

     negative rho (up, down):  1.974E+00 0.000E+00

     total cpu time spent up to now is     6927.3 secs

     total energy              =   -7425.29622907 Ry
     Harris-Foulkes estimate   =   -7425.29622907 Ry
     estimated scf accuracy    <       0.00000002 Ry

     iteration # 26     ecut=    50.00 Ry     beta=0.70
     Davidson diagonalization with overlap
     ethr =  2.47E-12,  avg # of iterations =  2.0

     negative rho (up, down):  1.974E+00 0.000E+00

     total cpu time spent up to now is     7137.4 secs

     total energy              =   -7425.29622908 Ry
     Harris-Foulkes estimate   =   -7425.29622908 Ry
     estimated scf accuracy    <       0.00000001 Ry

     iteration # 27     ecut=    50.00 Ry     beta=0.70
     Davidson diagonalization with overlap
     ethr =  1.43E-12,  avg # of iterations =  3.0

     negative rho (up, down):  1.974E+00 0.000E+00

     total cpu time spent up to now is     7326.5 secs

     total energy              =   -7425.29622908 Ry
     Harris-Foulkes estimate   =   -7425.29622908 Ry
     estimated scf accuracy    <       0.00000002 Ry

     iteration # 28     ecut=    50.00 Ry     beta=0.70
     Davidson diagonalization with overlap
     ethr =  1.43E-12,  avg # of iterations =  1.0

     negative rho (up, down):  1.974E+00 0.000E+00

     total cpu time spent up to now is     7574.7 secs

     End of self-consistent calculation

          k = 0.2500 0.2500 0.0833 (167653 PWs)   bands (ev):

   -19.8480  -7.6474  -6.7139  -6.1858  -6.1847  -5.7557  -5.3484  -5.2539
    -5.2531  -5.0574  -5.0572  -4.9424  -4.9406  -4.8607  -4.8392  -4.7651
    -4.6797  -4.6766  -4.6389  -4.6373  -4.4770  -4.4605  -4.4589  -4.4577
    -4.4516  -4.3976  -4.3957  -4.3844  -4.3842  -4.3467  -4.3415  -4.3349
    -4.2943  -4.2919  -4.2584  -4.2572  -4.2103  -4.2059  -4.2003  -4.1931
    -4.1879  -4.1790  -4.1746  -4.1465  -4.1240  -4.1148  -4.1122  -4.1086
    -4.1071  -4.0710  -4.0235  -4.0114  -4.0104  -4.0074  -4.0022  -3.9951
    -3.9938  -3.9931  -3.9826  -3.9292  -3.9241  -3.8788  -3.8727  -3.8644
    -3.8398  -3.8388  -3.8182  -3.8168  -3.8130  -3.8120  -3.8095  -3.7605
    -3.7591  -3.7477  -3.7468  -3.6428  -3.6400  -3.6365  -3.6331  -3.5977
    -3.5897  -3.5754  -3.5453  -3.5437  -3.5169  -3.5145  -3.4949  -3.4939
    -3.4816  -3.4804  -3.4261  -3.4252  -3.4078  -3.3919  -3.3807  -3.3791
    -3.3787  -3.3777  -3.3507  -3.3503  -3.3142  -3.3123  -3.2916  -3.2916
    -3.2589  -3.2586  -3.2402  -3.2128  -3.2124  -3.1753  -3.1748  -3.1392
    -3.1316  -3.1310  -3.1176  -3.1167  -3.1121  -3.1110  -3.0737  -3.0637
    -3.0227  -3.0224  -3.0143  -3.0053  -3.0042  -3.0014  -2.9788  -2.9785
    -2.9578  -2.9573  -2.9558  -2.9299  -2.9298  -2.9222  -2.9197  -2.9187
    -2.8836  -2.8790  -2.8440  -2.8430  -2.8426  -2.8398  -2.8396  -2.7602
    -2.7503  -2.7466  -2.7453  -2.7447  -2.7443  -2.7397  -2.7392  -2.7391
    -2.7382  -2.7291  -2.7213  -2.7049  -2.7021  -2.7016  -2.6985  -2.6865
    -2.6825  -2.6435  -2.6427  -2.6424  -2.6392  -2.6370  -2.6204  -2.6194
    -2.6113  -2.6112  -2.6085  -2.5498  -2.5495  -2.5438  -2.5436  -2.5403
    -2.5376  -2.5105  -2.4510  -2.4504  -2.4494  -2.4479  -2.4364  -2.4356
    -2.4287  -2.4191  -2.4187  -2.3825  -2.3812  -2.3737  -2.3730  -2.3724
    -2.3710  -2.3329  -2.3316  -2.3226  -2.3220  -2.3214  -2.3203  -2.2779
    -2.2603  -2.2576  -2.2037  -2.2030  -2.1857  -2.1853  -2.1795  -2.1772
    -2.1302  -2.1287  -2.1055  -2.0903  -2.0767  -2.0749  -2.0745  -2.0537
    -2.0519  -2.0423  -2.0246  -1.9899  -1.9843  -1.9720  -1.9713  -1.9712
    -1.9653  -1.9592  -1.9475  -1.9444  -1.9414  -1.9394  -1.9359  -1.9342
    -1.9328  -1.9229  -1.9218  -1.9115  -1.9033  -1.9015  -1.9005  -1.8929
    -1.8919  -1.8743  -1.8684  -1.8668  -1.8564  -1.8531  -1.8471  -1.8443
    -1.8105  -1.7782  -1.7760  -1.7419  -1.7250  -1.7246  -1.7139  -1.7100
    -1.6905  -1.6899  -1.6757  -1.6750  -1.6732  -1.6730  -1.6699  -1.6560
    -1.6380  -1.6373  -1.6360  -1.5918  -1.5903  -1.5514  -1.5506  -1.5043
    -1.5038  -1.4911  -1.4690  -1.4633  -1.4618  -1.4447  -1.4426  -1.4264
    -1.4258  -1.4214  -1.4212  -1.4198  -1.4193  -1.4156  -1.4139  -1.3957
    -1.3947  -1.3826  -1.3678  -1.3490  -1.3479  -1.3229  -1.3222  -1.3198
    -1.3197  -1.3162  -1.3107  -1.2908  -1.2903  -1.2764  -1.2719  -1.2611
    -1.2533  -1.2395  -1.2369  -1.2087  -1.2080  -1.2004  -1.1986  -1.1648
    -1.1641  -1.1562  -1.1545  -1.1473  -1.1449  -1.1256  -1.1252  -1.1137
    -1.1068  -1.1061  -1.0943  -1.0936  -1.0925  -1.0888  -1.0784  -1.0680
    -1.0667  -1.0596  -1.0591  -1.0475  -1.0425  -1.0390  -1.0362  -0.9966
    -0.9950  -0.9882  -0.9873  -0.9872  -0.9838  -0.9476  -0.9315  -0.9306
    -0.9299  -0.9285  -0.9238  -0.9216  -0.9199  -0.9052  -0.9035  -0.8692
    -0.8653  -0.8611  -0.8600  -0.8382  -0.8376  -0.8282  -0.7985  -0.7908
    -0.7637  -0.7628  -0.7354  -0.7351  -0.7317  -0.7308  -0.7307  -0.7263
    -0.7212  -0.7210  -0.7166  -0.7166  -0.6846  -0.6840  -0.6673  -0.6640
    -0.6610  -0.6608  -0.6588  -0.6505  -0.6401  -0.3633  -0.3551  -0.3009
    -0.2883  -0.2582  -0.0988  -0.0334  -0.0324   0.0020   0.2857   0.2890
     0.6130   0.6238   0.7151   0.7154   0.7550   0.7581   0.8980   0.9064
     1.0243   1.0261   1.1136   1.7105   1.7295   1.7303   1.7695   1.7738
     1.8107   1.8263   1.8976   1.9062   2.1061   2.1085   2.3403   2.4180
     2.4293   2.4381   2.8116   2.8261   2.8919   2.8940   2.8992   2.9015
     3.0509   3.0522   3.0800   3.1903   3.1986   3.4230   3.4319   3.5611
     3.5871   3.5936   3.8569   3.8630   3.9625   3.9894   3.9921   4.0093
     4.0449   4.1772   4.1801   4.4157   4.4162   4.4849   4.5036   4.6056
     4.6273   4.6342   4.6460   4.6723   4.8257   5.4007   5.4132   5.4383
     5.5513   5.5589   5.6069   5.6908   5.7376   5.7423   5.7474   5.8520
     5.8523   5.9077   5.9081   5.9495   5.9924   6.0427   6.0724   6.1704
     6.1849   6.2011   6.2181   6.2326   6.2450   6.2493   6.2506   6.2665

          k = 0.2500 0.2500-0.2500 (167588 PWs)   bands (ev):

   -19.8480  -7.6474  -6.7139  -6.1858  -6.1847  -5.7557  -5.3484  -5.2539
    -5.2531  -5.0574  -5.0572  -4.9424  -4.9406  -4.8607  -4.8392  -4.7651
    -4.6797  -4.6766  -4.6389  -4.6373  -4.4770  -4.4605  -4.4589  -4.4577
    -4.4516  -4.3976  -4.3957  -4.3844  -4.3842  -4.3467  -4.3415  -4.3349
    -4.2943  -4.2919  -4.2584  -4.2572  -4.2103  -4.2059  -4.2003  -4.1931
    -4.1879  -4.1790  -4.1746  -4.1465  -4.1240  -4.1148  -4.1122  -4.1086
    -4.1071  -4.0710  -4.0235  -4.0114  -4.0104  -4.0074  -4.0022  -3.9951
    -3.9938  -3.9931  -3.9826  -3.9292  -3.9241  -3.8788  -3.8727  -3.8644
    -3.8398  -3.8388  -3.8182  -3.8168  -3.8130  -3.8120  -3.8095  -3.7605
    -3.7591  -3.7477  -3.7468  -3.6428  -3.6400  -3.6365  -3.6331  -3.5977
    -3.5897  -3.5754  -3.5453  -3.5437  -3.5169  -3.5145  -3.4949  -3.4939
    -3.4816  -3.4804  -3.4261  -3.4252  -3.4078  -3.3919  -3.3807  -3.3791
    -3.3787  -3.3777  -3.3507  -3.3503  -3.3142  -3.3123  -3.2916  -3.2916
    -3.2589  -3.2586  -3.2402  -3.2128  -3.2123  -3.1753  -3.1748  -3.1392
    -3.1316  -3.1310  -3.1176  -3.1167  -3.1121  -3.1110  -3.0737  -3.0637
    -3.0227  -3.0224  -3.0143  -3.0053  -3.0042  -3.0014  -2.9788  -2.9785
    -2.9578  -2.9573  -2.9558  -2.9299  -2.9298  -2.9222  -2.9197  -2.9187
    -2.8836  -2.8790  -2.8440  -2.8430  -2.8426  -2.8398  -2.8396  -2.7602
    -2.7503  -2.7466  -2.7453  -2.7447  -2.7443  -2.7397  -2.7392  -2.7391
    -2.7381  -2.7291  -2.7213  -2.7049  -2.7021  -2.7016  -2.6985  -2.6865
    -2.6825  -2.6435  -2.6427  -2.6424  -2.6392  -2.6370  -2.6204  -2.6194
    -2.6113  -2.6112  -2.6085  -2.5498  -2.5495  -2.5438  -2.5436  -2.5403
    -2.5376  -2.5105  -2.4510  -2.4504  -2.4494  -2.4479  -2.4364  -2.4356
    -2.4286  -2.4191  -2.4187  -2.3825  -2.3812  -2.3737  -2.3730  -2.3724
    -2.3710  -2.3329  -2.3316  -2.3226  -2.3220  -2.3214  -2.3203  -2.2779
    -2.2603  -2.2576  -2.2037  -2.2030  -2.1857  -2.1854  -2.1795  -2.1772
    -2.1302  -2.1287  -2.1055  -2.0903  -2.0767  -2.0749  -2.0745  -2.0537
    -2.0519  -2.0423  -2.0246  -1.9899  -1.9843  -1.9720  -1.9713  -1.9712
    -1.9653  -1.9592  -1.9475  -1.9444  -1.9414  -1.9394  -1.9359  -1.9342
    -1.9328  -1.9229  -1.9218  -1.9115  -1.9033  -1.9015  -1.9005  -1.8929
    -1.8919  -1.8743  -1.8684  -1.8668  -1.8564  -1.8531  -1.8471  -1.8443
    -1.8105  -1.7782  -1.7760  -1.7419  -1.7250  -1.7246  -1.7139  -1.7100
    -1.6905  -1.6899  -1.6757  -1.6750  -1.6732  -1.6730  -1.6699  -1.6560
    -1.6380  -1.6373  -1.6360  -1.5918  -1.5903  -1.5514  -1.5506  -1.5043
    -1.5038  -1.4911  -1.4690  -1.4633  -1.4619  -1.4447  -1.4426  -1.4264
    -1.4258  -1.4214  -1.4212  -1.4198  -1.4193  -1.4156  -1.4139  -1.3957
    -1.3947  -1.3826  -1.3678  -1.3490  -1.3479  -1.3229  -1.3222  -1.3198
    -1.3197  -1.3162  -1.3107  -1.2908  -1.2903  -1.2764  -1.2719  -1.2611
    -1.2533  -1.2395  -1.2369  -1.2087  -1.2080  -1.2004  -1.1986  -1.1648
    -1.1641  -1.1562  -1.1545  -1.1473  -1.1449  -1.1256  -1.1252  -1.1137
    -1.1068  -1.1061  -1.0943  -1.0936  -1.0925  -1.0888  -1.0784  -1.0680
    -1.0667  -1.0595  -1.0591  -1.0475  -1.0425  -1.0390  -1.0362  -0.9966
    -0.9950  -0.9882  -0.9873  -0.9872  -0.9838  -0.9476  -0.9315  -0.9306
    -0.9299  -0.9285  -0.9238  -0.9215  -0.9199  -0.9052  -0.9035  -0.8692
    -0.8652  -0.8611  -0.8600  -0.8382  -0.8376  -0.8282  -0.7985  -0.7908
    -0.7637  -0.7627  -0.7354  -0.7351  -0.7317  -0.7308  -0.7307  -0.7263
    -0.7212  -0.7210  -0.7166  -0.7166  -0.6846  -0.6840  -0.6673  -0.6640
    -0.6610  -0.6608  -0.6588  -0.6505  -0.6401  -0.3633  -0.3551  -0.3009
    -0.2882  -0.2582  -0.0988  -0.0334  -0.0324   0.0020   0.2857   0.2890
     0.6130   0.6238   0.7151   0.7154   0.7550   0.7582   0.8980   0.9064
     1.0244   1.0261   1.1136   1.7105   1.7295   1.7303   1.7695   1.7738
     1.8107   1.8263   1.8976   1.9062   2.1061   2.1085   2.3403   2.4180
     2.4293   2.4381   2.8116   2.8261   2.8919   2.8940   2.8992   2.9015
     3.0509   3.0522   3.0801   3.1903   3.1986   3.4230   3.4319   3.5611
     3.5871   3.5936   3.8569   3.8630   3.9625   3.9894   3.9921   4.0094
     4.0449   4.1772   4.1801   4.4157   4.4162   4.4848   4.5036   4.6047
     4.6273   4.6340   4.6460   4.6722   4.8248   5.3971   5.4120   5.4140
     5.5513   5.5585   5.6646   5.6968   5.7375   5.7439   5.7479   5.8520
     5.8521   5.9077   5.9082   5.9499   5.9817   6.0552   6.1056   6.1573
     6.1963   6.2184   6.2306   6.2333   6.2449   6.2496   6.2525   6.2601

          k =-0.2500-0.2500 0.0833 (167653 PWs)   bands (ev):

   -19.8480  -7.6474  -6.7139  -6.1858  -6.1847  -5.7557  -5.3484  -5.2539
    -5.2531  -5.0574  -5.0572  -4.9424  -4.9406  -4.8607  -4.8392  -4.7651
    -4.6797  -4.6766  -4.6389  -4.6373  -4.4770  -4.4605  -4.4589  -4.4577
    -4.4516  -4.3976  -4.3957  -4.3844  -4.3842  -4.3467  -4.3415  -4.3349
    -4.2943  -4.2919  -4.2584  -4.2572  -4.2103  -4.2059  -4.2003  -4.1931
    -4.1879  -4.1790  -4.1746  -4.1465  -4.1240  -4.1148  -4.1122  -4.1086
    -4.1071  -4.0710  -4.0235  -4.0114  -4.0104  -4.0074  -4.0022  -3.9951
    -3.9938  -3.9931  -3.9826  -3.9292  -3.9241  -3.8788  -3.8727  -3.8644
    -3.8398  -3.8388  -3.8182  -3.8168  -3.8130  -3.8120  -3.8095  -3.7605
    -3.7591  -3.7477  -3.7468  -3.6428  -3.6400  -3.6365  -3.6331  -3.5977
    -3.5897  -3.5754  -3.5453  -3.5437  -3.5169  -3.5145  -3.4949  -3.4939
    -3.4816  -3.4804  -3.4261  -3.4252  -3.4078  -3.3919  -3.3807  -3.3791
    -3.3787  -3.3777  -3.3507  -3.3503  -3.3142  -3.3123  -3.2916  -3.2916
    -3.2589  -3.2586  -3.2402  -3.2128  -3.2124  -3.1753  -3.1748  -3.1392
    -3.1316  -3.1310  -3.1176  -3.1167  -3.1121  -3.1110  -3.0737  -3.0637
    -3.0227  -3.0224  -3.0143  -3.0053  -3.0042  -3.0014  -2.9788  -2.9785
    -2.9578  -2.9573  -2.9558  -2.9299  -2.9298  -2.9222  -2.9197  -2.9187
    -2.8836  -2.8790  -2.8440  -2.8430  -2.8426  -2.8398  -2.8396  -2.7602
    -2.7503  -2.7466  -2.7453  -2.7447  -2.7443  -2.7397  -2.7392  -2.7391
    -2.7382  -2.7291  -2.7213  -2.7049  -2.7021  -2.7016  -2.6985  -2.6865
    -2.6825  -2.6435  -2.6427  -2.6424  -2.6392  -2.6370  -2.6204  -2.6194
    -2.6113  -2.6112  -2.6085  -2.5498  -2.5495  -2.5438  -2.5436  -2.5403
    -2.5376  -2.5105  -2.4510  -2.4504  -2.4494  -2.4479  -2.4364  -2.4356
    -2.4287  -2.4191  -2.4187  -2.3825  -2.3812  -2.3737  -2.3730  -2.3724
    -2.3710  -2.3329  -2.3316  -2.3226  -2.3220  -2.3214  -2.3203  -2.2779
    -2.2603  -2.2576  -2.2037  -2.2030  -2.1857  -2.1853  -2.1795  -2.1772
    -2.1302  -2.1287  -2.1055  -2.0903  -2.0767  -2.0749  -2.0745  -2.0537
    -2.0519  -2.0423  -2.0246  -1.9899  -1.9843  -1.9720  -1.9713  -1.9712
    -1.9653  -1.9592  -1.9475  -1.9444  -1.9414  -1.9394  -1.9359  -1.9342
    -1.9328  -1.9229  -1.9218  -1.9115  -1.9033  -1.9015  -1.9005  -1.8929
    -1.8919  -1.8743  -1.8684  -1.8668  -1.8564  -1.8531  -1.8471  -1.8443
    -1.8105  -1.7782  -1.7760  -1.7419  -1.7250  -1.7246  -1.7139  -1.7100
    -1.6905  -1.6899  -1.6757  -1.6750  -1.6732  -1.6730  -1.6699  -1.6560
    -1.6380  -1.6373  -1.6360  -1.5918  -1.5903  -1.5514  -1.5506  -1.5043
    -1.5038  -1.4911  -1.4690  -1.4633  -1.4618  -1.4447  -1.4426  -1.4264
    -1.4258  -1.4214  -1.4212  -1.4198  -1.4193  -1.4156  -1.4139  -1.3957
    -1.3947  -1.3826  -1.3678  -1.3490  -1.3479  -1.3229  -1.3222  -1.3198
    -1.3197  -1.3162  -1.3107  -1.2908  -1.2903  -1.2764  -1.2719  -1.2611
    -1.2533  -1.2395  -1.2369  -1.2087  -1.2080  -1.2004  -1.1986  -1.1648
    -1.1641  -1.1562  -1.1545  -1.1473  -1.1449  -1.1256  -1.1252  -1.1137
    -1.1068  -1.1061  -1.0943  -1.0936  -1.0925  -1.0888  -1.0784  -1.0680
    -1.0667  -1.0596  -1.0591  -1.0475  -1.0425  -1.0390  -1.0362  -0.9966
    -0.9950  -0.9882  -0.9873  -0.9872  -0.9838  -0.9476  -0.9315  -0.9306
    -0.9299  -0.9285  -0.9238  -0.9216  -0.9199  -0.9052  -0.9035  -0.8692
    -0.8653  -0.8611  -0.8600  -0.8382  -0.8376  -0.8282  -0.7985  -0.7908
    -0.7637  -0.7628  -0.7354  -0.7351  -0.7317  -0.7308  -0.7307  -0.7263
    -0.7212  -0.7210  -0.7166  -0.7166  -0.6846  -0.6840  -0.6673  -0.6640
    -0.6610  -0.6608  -0.6588  -0.6505  -0.6401  -0.3633  -0.3551  -0.3009
    -0.2883  -0.2582  -0.0988  -0.0334  -0.0324   0.0020   0.2857   0.2890
     0.6130   0.6238   0.7151   0.7154   0.7550   0.7581   0.8980   0.9064
     1.0243   1.0261   1.1136   1.7105   1.7295   1.7303   1.7695   1.7738
     1.8107   1.8263   1.8976   1.9062   2.1061   2.1085   2.3403   2.4180
     2.4293   2.4381   2.8116   2.8261   2.8919   2.8940   2.8992   2.9015
     3.0509   3.0522   3.0800   3.1903   3.1986   3.4230   3.4319   3.5611
     3.5871   3.5936   3.8569   3.8630   3.9625   3.9894   3.9921   4.0093
     4.0449   4.1772   4.1801   4.4157   4.4162   4.4849   4.5036   4.6056
     4.6273   4.6342   4.6460   4.6723   4.8257   5.4007   5.4132   5.4381
     5.5513   5.5590   5.6076   5.6908   5.7376   5.7422   5.7474   5.8520
     5.8523   5.9077   5.9081   5.9495   5.9930   6.0403   6.0724   6.1705
     6.1850   6.2021   6.2184   6.2326   6.2450   6.2493   6.2506   6.2665

          k =-0.2500 0.2500-0.0833 (167653 PWs)   bands (ev):

   -19.8480  -7.6474  -6.7139  -6.1864  -6.1842  -5.7557  -5.3484  -5.2544
    -5.2525  -5.0574  -5.0571  -4.9416  -4.9413  -4.8607  -4.8392  -4.7651
    -4.6797  -4.6765  -4.6387  -4.6374  -4.4770  -4.4605  -4.4594  -4.4572
    -4.4516  -4.3976  -4.3957  -4.3847  -4.3839  -4.3467  -4.3408  -4.3356
    -4.2942  -4.2920  -4.2584  -4.2572  -4.2098  -4.2065  -4.2003  -4.1931
    -4.1879  -4.1789  -4.1746  -4.1464  -4.1241  -4.1146  -4.1123  -4.1087
    -4.1069  -4.0711  -4.0237  -4.0118  -4.0100  -4.0078  -4.0020  -3.9948
    -3.9938  -3.9931  -3.9824  -3.9298  -3.9232  -3.8793  -3.8724  -3.8646
    -3.8398  -3.8386  -3.8179  -3.8171  -3.8127  -3.8120  -3.8094  -3.7604
    -3.7591  -3.7481  -3.7464  -3.6433  -3.6396  -3.6371  -3.6328  -3.5977
    -3.5897  -3.5753  -3.5452  -3.5437  -3.5174  -3.5141  -3.4951  -3.4937
    -3.4821  -3.4800  -3.4264  -3.4250  -3.4076  -3.3919  -3.3808  -3.3793
    -3.3785  -3.3777  -3.3508  -3.3502  -3.3141  -3.3123  -3.2920  -3.2913
    -3.2589  -3.2586  -3.2402  -3.2125  -3.2125  -3.1756  -3.1745  -3.1393
    -3.1316  -3.1310  -3.1179  -3.1167  -3.1122  -3.1109  -3.0737  -3.0637
    -3.0226  -3.0225  -3.0143  -3.0049  -3.0047  -3.0012  -2.9789  -2.9785
    -2.9584  -2.9573  -2.9551  -2.9298  -2.9297  -2.9222  -2.9195  -2.9188
    -2.8836  -2.8789  -2.8444  -2.8431  -2.8424  -2.8398  -2.8397  -2.7602
    -2.7504  -2.7472  -2.7451  -2.7444  -2.7439  -2.7399  -2.7392  -2.7392
    -2.7378  -2.7291  -2.7213  -2.7051  -2.7022  -2.7016  -2.6983  -2.6864
    -2.6820  -2.6434  -2.6430  -2.6422  -2.6398  -2.6369  -2.6207  -2.6191
    -2.6115  -2.6111  -2.6085  -2.5498  -2.5495  -2.5438  -2.5438  -2.5392
    -2.5377  -2.5107  -2.4509  -2.4505  -2.4492  -2.4479  -2.4365  -2.4350
    -2.4286  -2.4190  -2.4185  -2.3833  -2.3807  -2.3742  -2.3734  -2.3721
    -2.3705  -2.3331  -2.3315  -2.3226  -2.3224  -2.3211  -2.3202  -2.2779
    -2.2607  -2.2604  -2.2038  -2.2029  -2.1873  -2.1840  -2.1791  -2.1783
    -2.1310  -2.1308  -2.1054  -2.0927  -2.0755  -2.0747  -2.0744  -2.0524
    -2.0522  -2.0423  -2.0247  -1.9865  -1.9856  -1.9798  -1.9716  -1.9710
    -1.9595  -1.9592  -1.9444  -1.9439  -1.9435  -1.9388  -1.9367  -1.9362
    -1.9341  -1.9242  -1.9209  -1.9109  -1.9039  -1.9017  -1.8954  -1.8923
    -1.8912  -1.8750  -1.8676  -1.8590  -1.8550  -1.8539  -1.8512  -1.8363
    -1.8101  -1.7791  -1.7752  -1.7419  -1.7256  -1.7232  -1.7142  -1.7133
    -1.6914  -1.6810  -1.6760  -1.6756  -1.6741  -1.6731  -1.6709  -1.6702
    -1.6385  -1.6373  -1.6354  -1.5924  -1.5893  -1.5516  -1.5510  -1.5046
    -1.5027  -1.4909  -1.4691  -1.4629  -1.4619  -1.4443  -1.4441  -1.4271
    -1.4243  -1.4221  -1.4208  -1.4204  -1.4172  -1.4163  -1.4138  -1.3957
    -1.3956  -1.3822  -1.3680  -1.3494  -1.3489  -1.3231  -1.3224  -1.3204
    -1.3190  -1.3151  -1.3090  -1.2925  -1.2891  -1.2783  -1.2713  -1.2596
    -1.2533  -1.2403  -1.2362  -1.2087  -1.2081  -1.2007  -1.1982  -1.1660
    -1.1621  -1.1566  -1.1540  -1.1481  -1.1447  -1.1260  -1.1246  -1.1139
    -1.1073  -1.1058  -1.0946  -1.0943  -1.0923  -1.0877  -1.0787  -1.0673
    -1.0666  -1.0599  -1.0590  -1.0469  -1.0443  -1.0390  -1.0363  -0.9972
    -0.9938  -0.9883  -0.9877  -0.9867  -0.9843  -0.9476  -0.9325  -0.9301
    -0.9297  -0.9281  -0.9265  -0.9207  -0.9201  -0.9054  -0.9030  -0.8699
    -0.8646  -0.8612  -0.8596  -0.8384  -0.8374  -0.8282  -0.7987  -0.7910
    -0.7641  -0.7623  -0.7355  -0.7351  -0.7318  -0.7308  -0.7307  -0.7262
    -0.7212  -0.7211  -0.7168  -0.7159  -0.6851  -0.6835  -0.6687  -0.6639
    -0.6613  -0.6604  -0.6603  -0.6478  -0.6403  -0.3632  -0.3551  -0.3037
    -0.2858  -0.2582  -0.0978  -0.0340  -0.0314   0.0023   0.2842   0.2904
     0.6106   0.6260   0.7145   0.7164   0.7539   0.7601   0.8948   0.9088
     1.0243   1.0258   1.1143   1.7115   1.7298   1.7300   1.7676   1.7737
     1.8049   1.8307   1.8954   1.9096   2.1049   2.1097   2.3397   2.4154
     2.4312   2.4386   2.8070   2.8277   2.8912   2.8949   2.8985   2.9027
     3.0514   3.0517   3.0767   3.1862   3.2083   3.4226   3.4376   3.5608
     3.5852   3.5949   3.8540   3.8667   3.9697   3.9916   3.9934   4.0155
     4.0304   4.1759   4.1818   4.4154   4.4170   4.4967   4.5003   4.5561
     4.6262   4.6329   4.6408   4.6777   4.8654   5.3729   5.4268   5.4964
     5.5251   5.5713   5.5942   5.6336   5.7353   5.7471   5.7508   5.8492
     5.8541   5.9066   5.9103   5.9526   6.0064   6.0145   6.1215   6.1423
     6.1850   6.2207   6.2313   6.2348   6.2385   6.2433   6.2575   6.2605

          k = 0.2500-0.2500-0.0833 (167653 PWs)   bands (ev):

   -19.8480  -7.6474  -6.7139  -6.1864  -6.1842  -5.7557  -5.3484  -5.2544
    -5.2525  -5.0574  -5.0571  -4.9416  -4.9413  -4.8607  -4.8392  -4.7651
    -4.6797  -4.6765  -4.6387  -4.6374  -4.4770  -4.4605  -4.4594  -4.4572
    -4.4516  -4.3976  -4.3957  -4.3847  -4.3839  -4.3467  -4.3408  -4.3356
    -4.2942  -4.2920  -4.2584  -4.2572  -4.2098  -4.2065  -4.2003  -4.1931
    -4.1879  -4.1789  -4.1746  -4.1464  -4.1241  -4.1146  -4.1123  -4.1087
    -4.1069  -4.0711  -4.0237  -4.0118  -4.0100  -4.0078  -4.0020  -3.9948
    -3.9938  -3.9931  -3.9824  -3.9298  -3.9232  -3.8793  -3.8724  -3.8646
    -3.8398  -3.8386  -3.8179  -3.8171  -3.8127  -3.8120  -3.8094  -3.7604
    -3.7591  -3.7481  -3.7464  -3.6433  -3.6396  -3.6371  -3.6328  -3.5977
    -3.5897  -3.5753  -3.5452  -3.5437  -3.5174  -3.5141  -3.4951  -3.4937
    -3.4821  -3.4800  -3.4264  -3.4250  -3.4076  -3.3919  -3.3808  -3.3793
    -3.3785  -3.3777  -3.3508  -3.3502  -3.3141  -3.3123  -3.2920  -3.2913
    -3.2589  -3.2586  -3.2402  -3.2125  -3.2125  -3.1756  -3.1745  -3.1393
    -3.1316  -3.1310  -3.1179  -3.1167  -3.1122  -3.1109  -3.0737  -3.0637
    -3.0226  -3.0225  -3.0143  -3.0049  -3.0047  -3.0012  -2.9789  -2.9785
    -2.9584  -2.9573  -2.9551  -2.9298  -2.9297  -2.9222  -2.9195  -2.9188
    -2.8836  -2.8789  -2.8444  -2.8431  -2.8424  -2.8398  -2.8397  -2.7602
    -2.7504  -2.7472  -2.7451  -2.7444  -2.7439  -2.7399  -2.7392  -2.7392
    -2.7378  -2.7291  -2.7213  -2.7051  -2.7022  -2.7016  -2.6983  -2.6864
    -2.6820  -2.6434  -2.6430  -2.6422  -2.6398  -2.6369  -2.6207  -2.6191
    -2.6115  -2.6111  -2.6085  -2.5498  -2.5495  -2.5438  -2.5438  -2.5392
    -2.5377  -2.5107  -2.4509  -2.4505  -2.4492  -2.4479  -2.4365  -2.4350
    -2.4286  -2.4190  -2.4185  -2.3833  -2.3807  -2.3742  -2.3734  -2.3721
    -2.3705  -2.3331  -2.3315  -2.3226  -2.3224  -2.3211  -2.3202  -2.2779
    -2.2607  -2.2604  -2.2038  -2.2029  -2.1873  -2.1840  -2.1791  -2.1783
    -2.1310  -2.1308  -2.1054  -2.0927  -2.0755  -2.0747  -2.0744  -2.0524
    -2.0522  -2.0423  -2.0247  -1.9865  -1.9856  -1.9798  -1.9716  -1.9710
    -1.9595  -1.9592  -1.9444  -1.9439  -1.9435  -1.9388  -1.9367  -1.9362
    -1.9341  -1.9242  -1.9209  -1.9109  -1.9039  -1.9017  -1.8954  -1.8923
    -1.8912  -1.8750  -1.8676  -1.8590  -1.8550  -1.8539  -1.8512  -1.8363
    -1.8101  -1.7791  -1.7752  -1.7419  -1.7256  -1.7232  -1.7142  -1.7133
    -1.6914  -1.6810  -1.6760  -1.6756  -1.6741  -1.6731  -1.6709  -1.6702
    -1.6385  -1.6373  -1.6354  -1.5924  -1.5893  -1.5516  -1.5510  -1.5046
    -1.5027  -1.4909  -1.4691  -1.4629  -1.4619  -1.4443  -1.4441  -1.4271
    -1.4243  -1.4221  -1.4208  -1.4204  -1.4172  -1.4163  -1.4138  -1.3957
    -1.3956  -1.3822  -1.3680  -1.3494  -1.3489  -1.3231  -1.3224  -1.3204
    -1.3190  -1.3151  -1.3090  -1.2925  -1.2891  -1.2783  -1.2713  -1.2596
    -1.2533  -1.2403  -1.2362  -1.2087  -1.2081  -1.2007  -1.1982  -1.1660
    -1.1621  -1.1566  -1.1540  -1.1481  -1.1447  -1.1260  -1.1246  -1.1139
    -1.1073  -1.1058  -1.0946  -1.0943  -1.0923  -1.0877  -1.0787  -1.0673
    -1.0666  -1.0599  -1.0590  -1.0469  -1.0443  -1.0390  -1.0363  -0.9972
    -0.9938  -0.9883  -0.9877  -0.9867  -0.9843  -0.9476  -0.9325  -0.9301
    -0.9297  -0.9281  -0.9265  -0.9207  -0.9201  -0.9054  -0.9030  -0.8699
    -0.8646  -0.8612  -0.8596  -0.8384  -0.8374  -0.8282  -0.7987  -0.7910
    -0.7641  -0.7623  -0.7355  -0.7351  -0.7318  -0.7308  -0.7307  -0.7262
    -0.7212  -0.7211  -0.7168  -0.7159  -0.6851  -0.6835  -0.6687  -0.6639
    -0.6613  -0.6604  -0.6603  -0.6478  -0.6403  -0.3632  -0.3551  -0.3037
    -0.2858  -0.2582  -0.0978  -0.0340  -0.0314   0.0023   0.2842   0.2904
     0.6106   0.6260   0.7145   0.7164   0.7539   0.7601   0.8948   0.9088
     1.0243   1.0258   1.1143   1.7115   1.7298   1.7300   1.7676   1.7737
     1.8049   1.8307   1.8954   1.9096   2.1049   2.1097   2.3397   2.4154
     2.4312   2.4386   2.8070   2.8277   2.8912   2.8949   2.8985   2.9027
     3.0514   3.0517   3.0767   3.1862   3.2083   3.4226   3.4376   3.5608
     3.5852   3.5949   3.8540   3.8667   3.9697   3.9916   3.9934   4.0155
     4.0304   4.1759   4.1818   4.4154   4.4170   4.4967   4.5003   4.5561
     4.6262   4.6329   4.6408   4.6777   4.8654   5.3728   5.4268   5.4962
     5.5252   5.5713   5.5943   5.6335   5.7353   5.7471   5.7508   5.8492
     5.8542   5.9066   5.9103   5.9526   6.0064   6.0144   6.1209   6.1427
     6.1851   6.2209   6.2313   6.2349   6.2384   6.2433   6.2575   6.2605

          k =-0.2500 0.2500 0.2500 (167588 PWs)   bands (ev):

   -19.8480  -7.6474  -6.7139  -6.1864  -6.1842  -5.7557  -5.3484  -5.2544
    -5.2525  -5.0574  -5.0571  -4.9416  -4.9413  -4.8607  -4.8392  -4.7651
    -4.6797  -4.6765  -4.6387  -4.6374  -4.4770  -4.4605  -4.4594  -4.4572
    -4.4516  -4.3976  -4.3957  -4.3847  -4.3839  -4.3467  -4.3408  -4.3356
    -4.2942  -4.2920  -4.2584  -4.2572  -4.2098  -4.2065  -4.2003  -4.1931
    -4.1879  -4.1789  -4.1746  -4.1464  -4.1241  -4.1146  -4.1123  -4.1087
    -4.1069  -4.0711  -4.0237  -4.0118  -4.0100  -4.0078  -4.0020  -3.9948
    -3.9938  -3.9931  -3.9824  -3.9298  -3.9232  -3.8793  -3.8724  -3.8646
    -3.8398  -3.8386  -3.8179  -3.8171  -3.8127  -3.8120  -3.8094  -3.7604
    -3.7591  -3.7481  -3.7464  -3.6433  -3.6396  -3.6371  -3.6328  -3.5977
    -3.5897  -3.5754  -3.5452  -3.5437  -3.5174  -3.5141  -3.4951  -3.4937
    -3.4821  -3.4800  -3.4264  -3.4250  -3.4076  -3.3919  -3.3808  -3.3793
    -3.3785  -3.3777  -3.3508  -3.3502  -3.3141  -3.3123  -3.2920  -3.2913
    -3.2589  -3.2586  -3.2402  -3.2125  -3.2125  -3.1756  -3.1745  -3.1393
    -3.1316  -3.1310  -3.1179  -3.1167  -3.1122  -3.1109  -3.0737  -3.0637
    -3.0226  -3.0225  -3.0143  -3.0049  -3.0047  -3.0012  -2.9789  -2.9785
    -2.9584  -2.9573  -2.9551  -2.9298  -2.9297  -2.9222  -2.9195  -2.9188
    -2.8836  -2.8789  -2.8444  -2.8431  -2.8424  -2.8398  -2.8397  -2.7602
    -2.7504  -2.7472  -2.7451  -2.7444  -2.7439  -2.7399  -2.7392  -2.7392
    -2.7378  -2.7291  -2.7213  -2.7051  -2.7022  -2.7016  -2.6983  -2.6864
    -2.6819  -2.6434  -2.6430  -2.6422  -2.6398  -2.6369  -2.6207  -2.6191
    -2.6115  -2.6111  -2.6085  -2.5498  -2.5495  -2.5438  -2.5438  -2.5392
    -2.5377  -2.5107  -2.4509  -2.4505  -2.4492  -2.4480  -2.4365  -2.4350
    -2.4286  -2.4190  -2.4185  -2.3833  -2.3807  -2.3742  -2.3734  -2.3721
    -2.3705  -2.3331  -2.3315  -2.3226  -2.3224  -2.3211  -2.3202  -2.2779
    -2.2607  -2.2604  -2.2038  -2.2029  -2.1873  -2.1840  -2.1791  -2.1783
    -2.1310  -2.1308  -2.1055  -2.0927  -2.0754  -2.0747  -2.0744  -2.0524
    -2.0522  -2.0423  -2.0247  -1.9864  -1.9856  -1.9798  -1.9716  -1.9710
    -1.9595  -1.9592  -1.9444  -1.9439  -1.9435  -1.9388  -1.9367  -1.9362
    -1.9341  -1.9242  -1.9209  -1.9109  -1.9039  -1.9017  -1.8954  -1.8923
    -1.8912  -1.8750  -1.8676  -1.8590  -1.8550  -1.8539  -1.8512  -1.8363
    -1.8101  -1.7791  -1.7752  -1.7419  -1.7256  -1.7232  -1.7142  -1.7133
    -1.6914  -1.6810  -1.6760  -1.6755  -1.6741  -1.6731  -1.6709  -1.6702
    -1.6385  -1.6373  -1.6354  -1.5924  -1.5893  -1.5516  -1.5510  -1.5046
    -1.5027  -1.4909  -1.4691  -1.4629  -1.4619  -1.4443  -1.4441  -1.4271
    -1.4243  -1.4221  -1.4208  -1.4204  -1.4172  -1.4163  -1.4138  -1.3957
    -1.3956  -1.3822  -1.3680  -1.3494  -1.3489  -1.3231  -1.3224  -1.3204
    -1.3190  -1.3151  -1.3090  -1.2925  -1.2891  -1.2783  -1.2713  -1.2595
    -1.2533  -1.2403  -1.2362  -1.2087  -1.2081  -1.2007  -1.1982  -1.1660
    -1.1621  -1.1566  -1.1540  -1.1481  -1.1447  -1.1260  -1.1246  -1.1139
    -1.1073  -1.1058  -1.0946  -1.0943  -1.0923  -1.0877  -1.0787  -1.0673
    -1.0666  -1.0599  -1.0590  -1.0469  -1.0443  -1.0390  -1.0363  -0.9972
    -0.9938  -0.9883  -0.9878  -0.9867  -0.9843  -0.9476  -0.9325  -0.9301
    -0.9297  -0.9281  -0.9265  -0.9207  -0.9201  -0.9054  -0.9030  -0.8699
    -0.8646  -0.8612  -0.8596  -0.8384  -0.8374  -0.8282  -0.7987  -0.7910
    -0.7641  -0.7623  -0.7355  -0.7351  -0.7318  -0.7308  -0.7307  -0.7262
    -0.7211  -0.7211  -0.7168  -0.7159  -0.6851  -0.6835  -0.6687  -0.6639
    -0.6613  -0.6604  -0.6603  -0.6478  -0.6403  -0.3632  -0.3551  -0.3037
    -0.2858  -0.2582  -0.0977  -0.0340  -0.0314   0.0023   0.2842   0.2904
     0.6106   0.6260   0.7145   0.7164   0.7539   0.7601   0.8948   0.9088
     1.0243   1.0258   1.1143   1.7115   1.7298   1.7300   1.7676   1.7737
     1.8049   1.8307   1.8954   1.9096   2.1049   2.1097   2.3397   2.4154
     2.4312   2.4386   2.8070   2.8277   2.8912   2.8949   2.8985   2.9027
     3.0514   3.0517   3.0768   3.1862   3.2083   3.4226   3.4376   3.5608
     3.5852   3.5949   3.8540   3.8667   3.9697   3.9916   3.9934   4.0157
     4.0305   4.1759   4.1818   4.4154   4.4170   4.4966   4.5003   4.5553
     4.6262   4.6329   4.6408   4.6776   4.8640   5.3726   5.4111   5.4834
     5.5210   5.5704   5.5842   5.7349   5.7355   5.7433   5.7495   5.8491
     5.8548   5.9066   5.9103   5.9526   5.9881   6.0498   6.0655   6.1972
     6.2092   6.2109   6.2312   6.2400   6.2482   6.2504   6.2574   6.2604

     the Fermi energy is     0.9753 ev

!    total energy              =   -7425.29622909 Ry
     Harris-Foulkes estimate   =   -7425.29622908 Ry
     estimated scf accuracy    <          2.0E-09 Ry

     The total energy is the sum of the following terms:

     one-electron contribution =  -48717.93799309 Ry
     hartree contribution      =   24912.85470540 Ry
     xc contribution           =   -3604.21146280 Ry
     ewald contribution        =   19984.00133853 Ry
     smearing contrib. (-TS)   =      -0.00281714 Ry

     convergence has been achieved in  28 iterations

     Writing output data file 7245714.save

     init_run     :    118.66s CPU    128.02s WALL (       1 calls)
     electrons    :   7009.28s CPU   7446.32s WALL (       1 calls)

     Called by init_run:
     wfcinit      :     88.50s CPU     97.02s WALL (       1 calls)
     potinit      :      6.88s CPU      7.39s WALL (       1 calls)

     Called by electrons:
     c_bands      :   5717.09s CPU   6070.21s WALL (      29 calls)
     sum_band     :    807.06s CPU    872.06s WALL (      29 calls)
     v_of_rho     :    102.97s CPU    115.37s WALL (      29 calls)
     newd         :    393.90s CPU    399.33s WALL (      29 calls)
     mix_rho      :      3.49s CPU      3.92s WALL (      29 calls)
     vdW_energy   :     11.41s CPU     12.77s WALL (      29 calls)
     vdW_ffts     :     46.74s CPU     52.63s WALL (      58 calls)
     vdW_v        :     13.18s CPU     13.96s WALL (      29 calls)

     Called by c_bands:
     init_us_2    :     18.67s CPU     19.02s WALL (     354 calls)
     cegterg      :   5639.71s CPU   5991.55s WALL (     174 calls)

     Called by *egterg:
     h_psi        :   2243.05s CPU   2540.01s WALL (     896 calls)
     s_psi        :    391.83s CPU    393.88s WALL (     896 calls)
     g_psi        :      4.85s CPU      4.86s WALL (     716 calls)
     cdiaghg      :   1624.84s CPU   1628.79s WALL (     884 calls)

     Called by h_psi:
     add_vuspsi   :    394.42s CPU    396.54s WALL (     896 calls)

     General routines
     calbec       :    634.83s CPU    636.96s WALL (    1070 calls)
     fft          :    116.90s CPU    127.45s WALL (    1914 calls)
     ffts         :      1.40s CPU      1.72s WALL (      58 calls)
     fftw         :   1427.38s CPU   1724.50s WALL (  469368 calls)
     interpolate  :      4.08s CPU      4.94s WALL (      58 calls)
     davcio       :      0.00s CPU      0.14s WALL (       6 calls)

     Parallel routines
     fft_scatter  :    954.76s CPU   1166.20s WALL (  471340 calls)

     PWSCF        :     1h58m CPU        2h 6m WALL


   This run was terminated on:  16:12:40  23Jun2015            

=------------------------------------------------------------------------------=
   JOB DONE.
=------------------------------------------------------------------------------=
