
     Program PWSCF v.5.1.2 starts on 24Jun2015 at 20:46:52 

     This program is part of the open-source Quantum ESPRESSO suite
     for quantum simulation of materials; please cite
         "P. Giannozzi et al., J. Phys.:Condens. Matter 21 395502 (2009);
          URL http://www.quantum-espresso.org", 
     in publications or presentations arising from this work. More details at
     http://www.quantum-espresso.org/quote

     Parallel version (MPI), running on    32 processors
     R & G space division:  proc/nbgrp/npool/nimage =      32
     Reading input from top.O1.Au62.d.3.4.phi.0.psi.90.in
Warning: card &IONS ignored
Warning: card / ignored
Warning: card &CELL ignored
Warning: card / ignored

     Current dimensions of program PWSCF are:
     Max number of different atomic species (ntypx) = 10
     Max number of k-points (npk) =  40000
     Max angular momentum in pseudopotentials (lmaxx) =  3

     IMPORTANT: XC functional enforced from input :
     Exchange-correlation      = VDW-DF ( 1  4  4  0 1 0)
     Any further DFT definition will be discarded
     Please, verify this is what you really want


     Subspace diagonalization in iterative solution of the eigenvalue problem:
     a serial algorithm will be used


     Parallelization info
     --------------------
     sticks:   dense  smooth     PW     G-vecs:    dense   smooth      PW
     Min         578     289     74               118518    41891    5486
     Max         579     290     75               118533    41932    5497
     Sum       18505    9265   2385              3792731  1341081  175711


     Title: 
     top.O1.Au62.d.3.4.phi.0.psi.90                                             


     bravais-lattice index     =            8
     lattice parameter (alat)  =      24.1233  a.u.
     unit-cell volume          =   28076.2361 (a.u.)^3
     number of atoms/cell      =           75
     number of atomic types    =            3
     number of electrons       =       800.00
     number of Kohn-Sham states=          480
     kinetic-energy cutoff     =      50.0000  Ry
     charge density cutoff     =     400.0000  Ry
     convergence threshold     =      1.0E-08
     mixing beta               =       0.7000
     number of iterations used =            8  plain     mixing
     Exchange-correlation      = VDW-DF ( 1  4  4  0 1 0)

     celldm(1)=  24.123277  celldm(2)=   1.000000  celldm(3)=   2.000000
     celldm(4)=   0.000000  celldm(5)=   0.000000  celldm(6)=   0.000000

     crystal axes: (cart. coord. in units of alat)
               a(1) = (   1.000000   0.000000   0.000000 )  
               a(2) = (   0.000000   1.000000   0.000000 )  
               a(3) = (   0.000000   0.000000   2.000000 )  

     reciprocal axes: (cart. coord. in units 2 pi/alat)
               b(1) = (  1.000000  0.000000  0.000000 )  
               b(2) = (  0.000000  1.000000  0.000000 )  
               b(3) = (  0.000000  0.000000  0.500000 )  


     PseudoPot. # 1 for Au read from file:
     /home/scc/andrejb/qe/pseudo/Au.pbe-nd-van.UPF
     MD5 check sum: 458681b50f36d87ef23c61b04bba420a
     Pseudo is Ultrasoft + core correction, Zval = 11.0
     Generated by new atomic code, or converted to UPF format
     Using radial grid of  985 points,  3 beta functions with: 
                l(1) =   1
                l(2) =   2
                l(3) =   2
     Q(r) pseudized with  8 coefficients,  rinner =    1.100   1.100   1.100
                                                       1.100   1.100

     PseudoPot. # 2 for H  read from file:
     /home/scc/andrejb/qe/pseudo/H.pbe-van_ak.UPF
     MD5 check sum: 403db7282739603aa925980fa9b8608d
     Pseudo is Ultrasoft, Zval =  1.0
     Generated by new atomic code, or converted to UPF format
     Using radial grid of  615 points,  1 beta functions with: 
                l(1) =   0
     Q(r) pseudized with  8 coefficients,  rinner =    0.800

     PseudoPot. # 3 for O  read from file:
     /home/scc/andrejb/qe/pseudo/O.pbe-van_ak.UPF
     MD5 check sum: 4b8c549914a63cae506c6ff22b5af4fe
     Pseudo is Ultrasoft, Zval =  6.0
     Generated by new atomic code, or converted to UPF format
     Using radial grid of  737 points,  4 beta functions with: 
                l(1) =   0
                l(2) =   0
                l(3) =   1
                l(4) =   1
     Q(r) pseudized with  8 coefficients,  rinner =    0.800   0.800   0.800


     vdW kernel table read from file vdW_kernel_table
     MD5 check sum: 48e77a2e26edf626eeb0eaa751ad5cac

     atomic species   valence    mass     pseudopotential
        Au            11.00   196.96657     Au( 1.00)
        H              1.00     1.01000     H ( 1.00)
        O              6.00    16.00000     O ( 1.00)

     No symmetry found



   Cartesian axes

     site n.     atom                  positions (alat units)
         1           O   tau(   1) = (   0.4998324   0.3332216   0.7656616  )
         2           H   tau(   2) = (   0.4527548   0.2877277   0.7264902  )
         3           H   tau(   3) = (   0.5454827   0.2853639   0.8036633  )
         4           Au  tau(   4) = (   0.0000000   0.0000000   0.0000000  )
         5           Au  tau(   5) = (   0.3332217   0.0000000   0.0000000  )
         6           Au  tau(   6) = (   0.6664435   0.0000000   0.0000000  )
         7           Au  tau(   7) = (   0.1666109   0.1666109   0.0000000  )
         8           Au  tau(   8) = (   0.4998326   0.1666109   0.0000000  )
         9           Au  tau(   9) = (   0.8330542   0.1666109   0.0000000  )
        10           Au  tau(  10) = (   0.0000000   0.3332217   0.0000000  )
        11           Au  tau(  11) = (   0.3332217   0.3332217   0.0000000  )
        12           Au  tau(  12) = (   0.6664435   0.3332217   0.0000000  )
        13           Au  tau(  13) = (   0.1666109   0.4998326   0.0000000  )
        14           Au  tau(  14) = (   0.4998326   0.4998326   0.0000000  )
        15           Au  tau(  15) = (   0.8330542   0.4998326   0.0000000  )
        16           Au  tau(  16) = (   0.0000000   0.6664435   0.0000000  )
        17           Au  tau(  17) = (   0.3332217   0.6664435   0.0000000  )
        18           Au  tau(  18) = (   0.6664435   0.6664435   0.0000000  )
        19           Au  tau(  19) = (   0.1666109   0.8330542   0.0000000  )
        20           Au  tau(  20) = (   0.4998326   0.8330542   0.0000000  )
        21           Au  tau(  21) = (   0.8330542   0.8330542   0.0000000  )
        22           Au  tau(  22) = (   0.1666109   0.0000000   0.1666109  )
        23           Au  tau(  23) = (   0.4998326   0.0000000   0.1666109  )
        24           Au  tau(  24) = (   0.8330542   0.0000000   0.1666109  )
        25           Au  tau(  25) = (   0.0000000   0.1666109   0.1666109  )
        26           Au  tau(  26) = (   0.3332217   0.1666109   0.1666109  )
        27           Au  tau(  27) = (   0.6664435   0.1666109   0.1666109  )
        28           Au  tau(  28) = (   0.1666109   0.3332217   0.1666109  )
        29           Au  tau(  29) = (   0.4998326   0.3332217   0.1666109  )
        30           Au  tau(  30) = (   0.8330542   0.3332217   0.1666109  )
        31           Au  tau(  31) = (   0.0000000   0.4998326   0.1666109  )
        32           Au  tau(  32) = (   0.3332217   0.4998326   0.1666109  )
        33           Au  tau(  33) = (   0.6664435   0.4998326   0.1666109  )
        34           Au  tau(  34) = (   0.1666109   0.6664435   0.1666109  )
        35           Au  tau(  35) = (   0.4998326   0.6664435   0.1666109  )
        36           Au  tau(  36) = (   0.8330542   0.6664435   0.1666109  )
        37           Au  tau(  37) = (   0.0000000   0.8330542   0.1666109  )
        38           Au  tau(  38) = (   0.3332217   0.8330542   0.1666109  )
        39           Au  tau(  39) = (   0.6664435   0.8330542   0.1666109  )
        40           Au  tau(  40) = (  -0.0000182  -0.0000182   0.3335478  )
        41           Au  tau(  41) = (   0.3332215  -0.0000181   0.3335472  )
        42           Au  tau(  42) = (   0.6664447  -0.0000183   0.3335481  )
        43           Au  tau(  43) = (  -0.0000181   0.3332215   0.3335472  )
        44           Au  tau(  44) = (   0.3332215   0.3332215   0.3335468  )
        45           Au  tau(  45) = (   0.6664445   0.3332215   0.3335478  )
        46           Au  tau(  46) = (  -0.0000183   0.6664447   0.3335481  )
        47           Au  tau(  47) = (   0.3332215   0.6664445   0.3335478  )
        48           Au  tau(  48) = (   0.6664446   0.6664446   0.3335486  )
        49           Au  tau(  49) = (   0.1666097   0.1666097   0.3335483  )
        50           Au  tau(  50) = (   0.4998320   0.1666098   0.3335477  )
        51           Au  tau(  51) = (   0.8330732   0.1666096   0.3335481  )
        52           Au  tau(  52) = (   0.1666098   0.4998320   0.3335477  )
        53           Au  tau(  53) = (   0.4998321   0.4998321   0.3335470  )
        54           Au  tau(  54) = (   0.8330730   0.4998322   0.3335474  )
        55           Au  tau(  55) = (   0.1666096   0.8330732   0.3335481  )
        56           Au  tau(  56) = (   0.4998322   0.8330730   0.3335474  )
        57           Au  tau(  57) = (   0.8330731   0.8330731   0.3335478  )
        58           Au  tau(  58) = (   0.1666104  -0.0000111   0.4993095  )
        59           Au  tau(  59) = (   0.4998323  -0.0000112   0.4993099  )
        60           Au  tau(  60) = (   0.8330661  -0.0000111   0.4993009  )
        61           Au  tau(  61) = (  -0.0000111   0.1666104   0.4993095  )
        62           Au  tau(  62) = (   0.3332214   0.1666106   0.4993185  )
        63           Au  tau(  63) = (   0.6664437   0.1666106   0.4993187  )
        64           Au  tau(  64) = (   0.1666106   0.3332214   0.4993185  )
        65           Au  tau(  65) = (   0.4998324   0.3332216   0.4993185  )
        66           Au  tau(  66) = (   0.8330659   0.3332215   0.4993103  )
        67           Au  tau(  67) = (  -0.0000112   0.4998323   0.4993099  )
        68           Au  tau(  68) = (   0.3332216   0.4998324   0.4993185  )
        69           Au  tau(  69) = (   0.6664436   0.4998325   0.4993187  )
        70           Au  tau(  70) = (   0.1666106   0.6664437   0.4993187  )
        71           Au  tau(  71) = (   0.4998325   0.6664436   0.4993187  )
        72           Au  tau(  72) = (   0.8330658   0.6664438   0.4993102  )
        73           Au  tau(  73) = (  -0.0000111   0.8330661   0.4993009  )
        74           Au  tau(  74) = (   0.3332215   0.8330659   0.4993103  )
        75           Au  tau(  75) = (   0.6664438   0.8330658   0.4993102  )

     number of k points=     6  Marzari-Vanderbilt smearing, width (Ry)=  0.0200
                       cart. coord. in units 2pi/alat
        k(    1) = (   0.2500000   0.2500000   0.0833333), wk =   0.3333333
        k(    2) = (   0.2500000   0.2500000  -0.2500000), wk =   0.3333333
        k(    3) = (  -0.2500000  -0.2500000   0.0833333), wk =   0.3333333
        k(    4) = (  -0.2500000   0.2500000  -0.0833333), wk =   0.3333333
        k(    5) = (   0.2500000  -0.2500000  -0.0833333), wk =   0.3333333
        k(    6) = (  -0.2500000   0.2500000   0.2500000), wk =   0.3333333

     Dense  grid:  3792731 G-vectors     FFT dimensions: ( 160, 160, 320)

     Smooth grid:  1341081 G-vectors     FFT dimensions: ( 120, 120, 225)

     Largest allocated arrays     est. size (Mb)     dimensions
        Kohn-Sham Wavefunctions        38.58 Mb     (    5267,  480)
        NL pseudopotentials            76.03 Mb     (    5267,  946)
        Each V/rho on FFT grid          3.91 Mb     (  256000)
        Each G-vector array             0.90 Mb     (  118520)
        G-vector shells                 0.08 Mb     (   10286)
     Largest temporary arrays     est. size (Mb)     dimensions
        Auxiliary wavefunctions       154.31 Mb     (    5267, 1920)
        Each subspace H/S matrix       56.25 Mb     (    1920, 1920)
        Each <psi_i|beta_j> matrix      6.93 Mb     (     946,  480)
        Arrays for rho mixing          31.25 Mb     (  256000,    8)

     Initial potential from superposition of free atoms
     Check: negative starting charge=   -1.945087

     starting charge  799.16392, renormalised to  800.00000

     negative rho (up, down):  1.947E+00 0.000E+00


     ************************************************************************
     *
     * You are using vdW-DF for exchange-correlation in this calculation.
     * Please cite the following three references that made this development
     * possible:
     *
     *   M. Dion, H. Rydberg, E. Schroder, D. C. Langreth, and
     *   B. I. Lundqvist, Phys. Rev. Lett. 92, 246401 (2004).
     *
     *   T. Thonhauser, V. R. Cooper, S. Li, A. Puzder, P. Hyldgaard, and
     *   D. C. Langreth, Phys. Rev. B 76, 125112 (2007).
     *
     *   G. Roman-Perez and J. M. Soler, Phys. Rev. Lett. 103, 096102 (2009).
     *
     *
     * If you are using vdW-DF2, please also cite:
     *
     *   K. Lee, E. D. Murray, L. Kong, B. I. Lundqvist, and
     *   D. C. Langreth, Phys. Rev. B 82, 081101(R) (2010).
     *
     *
     * If you are calculating the stress with vdW-DF, please also cite:
     *
     *   R. Sabatini, E. Kucukbenli, B. Kolb, T. Thonhauser, and
     *   S. de Gironcoli, J. Phys.: Condens. Matter 24, 424209 (2012).
     *
     ************************************************************************

     Carrying out vdW-DF run using the following parameters:

     Nqs =      20    Nr_points =    1024   r_max =   100.000
     q_mesh =
               0.00001000     0.04494208     0.09755937     0.15916263
               0.23128650     0.31572767     0.41458969     0.53033537
               0.66584808     0.82450364     1.01025438     1.22772762
               1.48234092     1.78043706     2.12944203     2.53805004
               3.01644009     3.57652955     4.23227104     5.00000000

     Gradients computed in reciprocal space

     ************************************************************************


     Starting wfc are  654 randomized atomic wfcs

     total cpu time spent up to now is      119.8 secs

     Self-consistent Calculation

     iteration #  1     ecut=    50.00 Ry     beta=0.70
     Davidson diagonalization with overlap
     ethr =  1.00E-02,  avg # of iterations =  3.0

     Threshold (ethr) on eigenvalues was too large:
     Diagonalizing with lowered threshold

     Davidson diagonalization with overlap
     ethr =  4.26E-04,  avg # of iterations =  2.0

     negative rho (up, down):  1.947E+00 0.000E+00

     total cpu time spent up to now is      502.7 secs

     total energy              =   -7423.02139954 Ry
     Harris-Foulkes estimate   =   -7426.08089486 Ry
     estimated scf accuracy    <       3.77870286 Ry

     iteration #  2     ecut=    50.00 Ry     beta=0.70
     Davidson diagonalization with overlap
     ethr =  4.72E-04,  avg # of iterations = 11.3

     negative rho (up, down):  1.942E+00 0.000E+00

     total cpu time spent up to now is     1098.4 secs

     total energy              =   -7415.00571075 Ry
     Harris-Foulkes estimate   =   -7432.69537502 Ry
     estimated scf accuracy    <      92.46311672 Ry

     iteration #  3     ecut=    50.00 Ry     beta=0.70
     Davidson diagonalization with overlap
     ethr =  4.72E-04,  avg # of iterations =  6.0

     negative rho (up, down):  1.953E+00 0.000E+00

     total cpu time spent up to now is     1504.0 secs

     total energy              =   -7424.09110464 Ry
     Harris-Foulkes estimate   =   -7425.89070296 Ry
     estimated scf accuracy    <       7.57737038 Ry

     iteration #  4     ecut=    50.00 Ry     beta=0.70
     Davidson diagonalization with overlap
     ethr =  4.72E-04,  avg # of iterations =  6.0

     negative rho (up, down):  1.955E+00 0.000E+00

     total cpu time spent up to now is     1745.7 secs

     total energy              =   -7424.74760407 Ry
     Harris-Foulkes estimate   =   -7425.73589069 Ry
     estimated scf accuracy    <       6.07557302 Ry

     iteration #  5     ecut=    50.00 Ry     beta=0.70
     Davidson diagonalization with overlap
     ethr =  4.72E-04,  avg # of iterations =  6.2

     negative rho (up, down):  1.963E+00 0.000E+00

     total cpu time spent up to now is     1984.5 secs

     total energy              =   -7425.13309906 Ry
     Harris-Foulkes estimate   =   -7425.53898492 Ry
     estimated scf accuracy    <       2.90687275 Ry

     iteration #  6     ecut=    50.00 Ry     beta=0.70
     Davidson diagonalization with overlap
     ethr =  3.63E-04,  avg # of iterations =  5.5

     negative rho (up, down):  1.967E+00 0.000E+00

     total cpu time spent up to now is     2204.4 secs

     total energy              =   -7425.28264351 Ry
     Harris-Foulkes estimate   =   -7425.33138924 Ry
     estimated scf accuracy    <       0.15864511 Ry

     iteration #  7     ecut=    50.00 Ry     beta=0.70
     Davidson diagonalization with overlap
     ethr =  1.98E-05,  avg # of iterations = 10.3

     negative rho (up, down):  1.970E+00 0.000E+00

     total cpu time spent up to now is     2509.9 secs

     total energy              =   -7425.28228584 Ry
     Harris-Foulkes estimate   =   -7425.32971785 Ry
     estimated scf accuracy    <       0.24385143 Ry

     iteration #  8     ecut=    50.00 Ry     beta=0.70
     Davidson diagonalization with overlap
     ethr =  1.98E-05,  avg # of iterations =  3.0

     negative rho (up, down):  1.971E+00 0.000E+00

     total cpu time spent up to now is     2716.3 secs

     total energy              =   -7425.29230831 Ry
     Harris-Foulkes estimate   =   -7425.31027401 Ry
     estimated scf accuracy    <       0.07267797 Ry

     iteration #  9     ecut=    50.00 Ry     beta=0.70
     Davidson diagonalization with overlap
     ethr =  9.08E-06,  avg # of iterations =  4.3

     negative rho (up, down):  1.972E+00 0.000E+00

     total cpu time spent up to now is     2936.2 secs

     total energy              =   -7425.29316485 Ry
     Harris-Foulkes estimate   =   -7425.30307128 Ry
     estimated scf accuracy    <       0.03339191 Ry

     iteration # 10     ecut=    50.00 Ry     beta=0.70
     Davidson diagonalization with overlap
     ethr =  4.17E-06,  avg # of iterations =  7.5

     negative rho (up, down):  1.973E+00 0.000E+00

     total cpu time spent up to now is     3189.3 secs

     total energy              =   -7425.29436135 Ry
     Harris-Foulkes estimate   =   -7425.29748170 Ry
     estimated scf accuracy    <       0.00936573 Ry

     iteration # 11     ecut=    50.00 Ry     beta=0.70
     Davidson diagonalization with overlap
     ethr =  1.17E-06,  avg # of iterations =  7.7

     negative rho (up, down):  1.974E+00 0.000E+00

     total cpu time spent up to now is     3439.5 secs

     total energy              =   -7425.29471920 Ry
     Harris-Foulkes estimate   =   -7425.29593004 Ry
     estimated scf accuracy    <       0.00431272 Ry

     iteration # 12     ecut=    50.00 Ry     beta=0.70
     Davidson diagonalization with overlap
     ethr =  5.39E-07,  avg # of iterations =  2.7

     negative rho (up, down):  1.974E+00 0.000E+00

     total cpu time spent up to now is     3634.8 secs

     total energy              =   -7425.29420320 Ry
     Harris-Foulkes estimate   =   -7425.29520788 Ry
     estimated scf accuracy    <       0.00151238 Ry

     iteration # 13     ecut=    50.00 Ry     beta=0.70
     Davidson diagonalization with overlap
     ethr =  1.89E-07,  avg # of iterations =  7.5

     negative rho (up, down):  1.974E+00 0.000E+00

     total cpu time spent up to now is     3993.7 secs

     total energy              =   -7425.29331946 Ry
     Harris-Foulkes estimate   =   -7425.29616612 Ry
     estimated scf accuracy    <       0.01445029 Ry

     iteration # 14     ecut=    50.00 Ry     beta=0.70
     Davidson diagonalization with overlap
     ethr =  1.89E-07,  avg # of iterations =  3.0

     negative rho (up, down):  1.974E+00 0.000E+00

     total cpu time spent up to now is     4248.9 secs

     total energy              =   -7425.29458891 Ry
     Harris-Foulkes estimate   =   -7425.29486484 Ry
     estimated scf accuracy    <       0.00115734 Ry

     iteration # 15     ecut=    50.00 Ry     beta=0.70
     Davidson diagonalization with overlap
     ethr =  1.45E-07,  avg # of iterations =  2.0

     negative rho (up, down):  1.974E+00 0.000E+00

     total cpu time spent up to now is     4439.4 secs

     total energy              =   -7425.29472363 Ry
     Harris-Foulkes estimate   =   -7425.29476462 Ry
     estimated scf accuracy    <       0.00016189 Ry

     iteration # 16     ecut=    50.00 Ry     beta=0.70
     Davidson diagonalization with overlap
     ethr =  2.02E-08,  avg # of iterations =  2.0

     negative rho (up, down):  1.974E+00 0.000E+00

     total cpu time spent up to now is     4638.0 secs

     total energy              =   -7425.29470823 Ry
     Harris-Foulkes estimate   =   -7425.29479084 Ry
     estimated scf accuracy    <       0.00066114 Ry

     iteration # 17     ecut=    50.00 Ry     beta=0.70
     Davidson diagonalization with overlap
     ethr =  2.02E-08,  avg # of iterations =  2.0

     negative rho (up, down):  1.974E+00 0.000E+00

     total cpu time spent up to now is     4826.3 secs

     total energy              =   -7425.29474792 Ry
     Harris-Foulkes estimate   =   -7425.29475523 Ry
     estimated scf accuracy    <       0.00002951 Ry

     iteration # 18     ecut=    50.00 Ry     beta=0.70
     Davidson diagonalization with overlap
     ethr =  3.69E-09,  avg # of iterations =  2.0

     negative rho (up, down):  1.974E+00 0.000E+00

     total cpu time spent up to now is     5021.8 secs

     total energy              =   -7425.29475091 Ry
     Harris-Foulkes estimate   =   -7425.29475344 Ry
     estimated scf accuracy    <       0.00000904 Ry

     iteration # 19     ecut=    50.00 Ry     beta=0.70
     Davidson diagonalization with overlap
     ethr =  1.13E-09,  avg # of iterations =  2.0

     negative rho (up, down):  1.974E+00 0.000E+00

     total cpu time spent up to now is     5219.0 secs

     total energy              =   -7425.29475142 Ry
     Harris-Foulkes estimate   =   -7425.29475349 Ry
     estimated scf accuracy    <       0.00001066 Ry

     iteration # 20     ecut=    50.00 Ry     beta=0.70
     Davidson diagonalization with overlap
     ethr =  1.13E-09,  avg # of iterations =  2.0

     negative rho (up, down):  1.974E+00 0.000E+00

     total cpu time spent up to now is     5412.1 secs

     total energy              =   -7425.29475258 Ry
     Harris-Foulkes estimate   =   -7425.29475277 Ry
     estimated scf accuracy    <       0.00000109 Ry

     iteration # 21     ecut=    50.00 Ry     beta=0.70
     Davidson diagonalization with overlap
     ethr =  1.36E-10,  avg # of iterations =  2.0

     negative rho (up, down):  1.974E+00 0.000E+00

     total cpu time spent up to now is     5603.6 secs

     total energy              =   -7425.29475275 Ry
     Harris-Foulkes estimate   =   -7425.29475279 Ry
     estimated scf accuracy    <       0.00000028 Ry

     iteration # 22     ecut=    50.00 Ry     beta=0.70
     Davidson diagonalization with overlap
     ethr =  3.44E-11,  avg # of iterations =  3.0

     negative rho (up, down):  1.974E+00 0.000E+00

     total cpu time spent up to now is     5813.5 secs

     total energy              =   -7425.29475278 Ry
     Harris-Foulkes estimate   =   -7425.29475286 Ry
     estimated scf accuracy    <       0.00000030 Ry

     iteration # 23     ecut=    50.00 Ry     beta=0.70
     Davidson diagonalization with overlap
     ethr =  3.44E-11,  avg # of iterations =  3.0

     negative rho (up, down):  1.974E+00 0.000E+00

     total cpu time spent up to now is     6018.0 secs

     total energy              =   -7425.29475279 Ry
     Harris-Foulkes estimate   =   -7425.29475283 Ry
     estimated scf accuracy    <       0.00000008 Ry

     iteration # 24     ecut=    50.00 Ry     beta=0.70
     Davidson diagonalization with overlap
     ethr =  9.91E-12,  avg # of iterations =  2.0

     negative rho (up, down):  1.974E+00 0.000E+00

     total cpu time spent up to now is     6217.6 secs

     total energy              =   -7425.29475282 Ry
     Harris-Foulkes estimate   =   -7425.29475282 Ry
     estimated scf accuracy    <       0.00000012 Ry

     iteration # 25     ecut=    50.00 Ry     beta=0.70
     Davidson diagonalization with overlap
     ethr =  9.91E-12,  avg # of iterations =  2.0

     negative rho (up, down):  1.974E+00 0.000E+00

     total cpu time spent up to now is     6410.9 secs

     total energy              =   -7425.29475283 Ry
     Harris-Foulkes estimate   =   -7425.29475284 Ry
     estimated scf accuracy    <       0.00000005 Ry

     iteration # 26     ecut=    50.00 Ry     beta=0.70
     Davidson diagonalization with overlap
     ethr =  6.25E-12,  avg # of iterations =  2.0

     negative rho (up, down):  1.974E+00 0.000E+00

     total cpu time spent up to now is     6594.8 secs

     total energy              =   -7425.29475284 Ry
     Harris-Foulkes estimate   =   -7425.29475284 Ry
     estimated scf accuracy    <       0.00000001 Ry

     iteration # 27     ecut=    50.00 Ry     beta=0.70
     Davidson diagonalization with overlap
     ethr =  1.43E-12,  avg # of iterations =  3.0

     negative rho (up, down):  1.974E+00 0.000E+00

     total cpu time spent up to now is     6803.4 secs

     total energy              =   -7425.29475284 Ry
     Harris-Foulkes estimate   =   -7425.29475285 Ry
     estimated scf accuracy    <       0.00000006 Ry

     iteration # 28     ecut=    50.00 Ry     beta=0.70
     Davidson diagonalization with overlap
     ethr =  1.43E-12,  avg # of iterations =  2.0

     negative rho (up, down):  1.974E+00 0.000E+00

     total cpu time spent up to now is     6997.9 secs

     End of self-consistent calculation

          k = 0.2500 0.2500 0.0833 (167653 PWs)   bands (ev):

   -19.4636  -7.2850  -6.8261  -6.2978  -6.2973  -5.8680  -5.4593  -5.3659
    -5.3655  -5.1698  -5.1696  -5.0524  -5.0517  -4.9733  -4.9505  -4.8773
    -4.7924  -4.7887  -4.7499  -4.7497  -4.5890  -4.5721  -4.5711  -4.5708
    -4.5639  -4.5082  -4.5081  -4.4963  -4.4960  -4.4592  -4.4469  -4.4463
    -4.4044  -4.4044  -4.3710  -4.3697  -4.3181  -4.3176  -4.3072  -4.3058
    -4.3003  -4.2872  -4.2871  -4.2462  -4.2279  -4.2277  -4.2208  -4.2206
    -4.1887  -4.1391  -4.1236  -4.1233  -4.1205  -4.1194  -4.1117  -4.1061
    -4.1059  -4.1055  -4.0413  -4.0405  -3.9909  -3.9905  -3.9784  -3.9525
    -3.9521  -3.9327  -3.9296  -3.9291  -3.9249  -3.9220  -3.8730  -3.8728
    -3.8600  -3.8597  -3.7550  -3.7544  -3.7491  -3.7482  -3.7109  -3.7025
    -3.6875  -3.6578  -3.6577  -3.6290  -3.6287  -3.6079  -3.6070  -3.5937
    -3.5932  -3.5390  -3.5384  -3.5232  -3.5057  -3.5025  -3.4923  -3.4915
    -3.4912  -3.4855  -3.4628  -3.4616  -3.4264  -3.4261  -3.4044  -3.4031
    -3.3712  -3.3702  -3.3526  -3.3250  -3.3248  -3.2876  -3.2873  -3.2518
    -3.2443  -3.2436  -3.2297  -3.2293  -3.2246  -3.2244  -3.1863  -3.1757
    -3.1352  -3.1350  -3.1270  -3.1177  -3.1169  -3.1155  -3.0912  -3.0911
    -3.0699  -3.0696  -3.0690  -3.0424  -3.0422  -3.0346  -3.0320  -3.0317
    -2.9957  -2.9917  -2.9564  -2.9558  -2.9552  -2.9524  -2.9520  -2.8728
    -2.8629  -2.8587  -2.8583  -2.8571  -2.8568  -2.8525  -2.8518  -2.8514
    -2.8512  -2.8417  -2.8339  -2.8173  -2.8143  -2.8142  -2.8134  -2.7988
    -2.7942  -2.7562  -2.7554  -2.7551  -2.7512  -2.7507  -2.7325  -2.7323
    -2.7236  -2.7236  -2.7211  -2.6619  -2.6618  -2.6563  -2.6561  -2.6517
    -2.6512  -2.6234  -2.5640  -2.5629  -2.5624  -2.5603  -2.5490  -2.5471
    -2.5426  -2.5315  -2.5309  -2.4949  -2.4939  -2.4855  -2.4850  -2.4845
    -2.4840  -2.4448  -2.4445  -2.4347  -2.4344  -2.4330  -2.4327  -2.3913
    -2.3758  -2.3698  -2.3159  -2.3156  -2.2978  -2.2959  -2.2911  -2.2904
    -2.2421  -2.2413  -2.2179  -2.2023  -2.1877  -2.1869  -2.1863  -2.1647
    -2.1642  -2.1546  -2.1397  -2.0982  -2.0971  -2.0842  -2.0828  -2.0822
    -2.0719  -2.0713  -2.0572  -2.0562  -2.0557  -2.0513  -2.0472  -2.0462
    -2.0457  -2.0341  -2.0336  -2.0164  -2.0156  -2.0137  -2.0075  -2.0044
    -2.0043  -1.9808  -1.9805  -1.9704  -1.9672  -1.9649  -1.9621  -1.9249
    -1.8913  -1.8900  -1.8543  -1.8374  -1.8371  -1.8283  -1.8261  -1.8054
    -1.8026  -1.7907  -1.7877  -1.7871  -1.7859  -1.7842  -1.7828  -1.7529
    -1.7501  -1.7499  -1.7082  -1.7039  -1.6694  -1.6643  -1.6361  -1.6166
    -1.6106  -1.5956  -1.5815  -1.5740  -1.5714  -1.5563  -1.5525  -1.5384
    -1.5374  -1.5331  -1.5328  -1.5315  -1.5311  -1.5286  -1.5202  -1.5082
    -1.5055  -1.4806  -1.4799  -1.4615  -1.4609  -1.4354  -1.4346  -1.4318
    -1.4313  -1.4264  -1.4191  -1.4039  -1.3987  -1.3885  -1.3797  -1.3656
    -1.3641  -1.3515  -1.3444  -1.3209  -1.3205  -1.3128  -1.3068  -1.2769
    -1.2747  -1.2682  -1.2660  -1.2597  -1.2553  -1.2379  -1.2375  -1.2260
    -1.2190  -1.2178  -1.2063  -1.2056  -1.2049  -1.1992  -1.1907  -1.1801
    -1.1792  -1.1719  -1.1718  -1.1589  -1.1553  -1.1497  -1.1485  -1.1091
    -1.1062  -1.1006  -1.0998  -1.0993  -1.0969  -1.0599  -1.0431  -1.0427
    -1.0421  -1.0402  -1.0378  -1.0334  -1.0325  -1.0174  -1.0165  -0.9808
    -0.9786  -0.9734  -0.9728  -0.9505  -0.9503  -0.9406  -0.9110  -0.9032
    -0.8758  -0.8754  -0.8478  -0.8476  -0.8446  -0.8436  -0.8428  -0.8386
    -0.8335  -0.8328  -0.8292  -0.8286  -0.7968  -0.7966  -0.7788  -0.7755
    -0.7734  -0.7728  -0.7714  -0.7665  -0.7525  -0.4765  -0.4666  -0.4108
    -0.4041  -0.3710  -0.2108  -0.1455  -0.1450  -0.1111   0.1736   0.1752
     0.5035   0.5073   0.6026   0.6030   0.6438   0.6445   0.7869   0.7904
     0.9117   0.9136   1.0017   1.5988   1.6169   1.6179   1.6561   1.6623
     1.7046   1.7103   1.7868   1.7889   1.9942   1.9948   2.2293   2.3088
     2.3115   2.3258   2.7045   2.7093   2.7799   2.7805   2.7874   2.7879
     2.9381   2.9398   2.9820   3.0816   3.0835   3.3134   3.3162   3.4490
     3.4762   3.4773   3.7468   3.7484   3.8604   3.8796   3.8800   3.9268
     3.9556   4.0659   4.0671   4.3026   4.3043   4.3904   4.3925   4.5161
     4.5184   4.5387   4.5446   4.6647   4.9492   5.3310   5.3476   5.4415
     5.4473   5.5038   5.6253   5.6279   5.6433   5.6972   5.7223   5.7428
     5.7462   5.7947   5.7970   5.8390   6.0012   6.0606   6.1021   6.1079
     6.1241   6.1301   6.1374   6.1381   6.1488   6.1496   6.1732   6.2063

          k = 0.2500 0.2500-0.2500 (167588 PWs)   bands (ev):

   -19.4636  -7.2850  -6.8261  -6.2978  -6.2973  -5.8680  -5.4593  -5.3659
    -5.3655  -5.1698  -5.1696  -5.0524  -5.0517  -4.9733  -4.9505  -4.8773
    -4.7924  -4.7887  -4.7499  -4.7496  -4.5890  -4.5721  -4.5711  -4.5708
    -4.5639  -4.5082  -4.5081  -4.4963  -4.4960  -4.4592  -4.4469  -4.4463
    -4.4044  -4.4044  -4.3710  -4.3697  -4.3181  -4.3176  -4.3072  -4.3058
    -4.3003  -4.2872  -4.2871  -4.2462  -4.2279  -4.2277  -4.2208  -4.2206
    -4.1887  -4.1391  -4.1236  -4.1233  -4.1205  -4.1194  -4.1117  -4.1061
    -4.1059  -4.1055  -4.0413  -4.0405  -3.9909  -3.9905  -3.9784  -3.9524
    -3.9521  -3.9327  -3.9296  -3.9291  -3.9249  -3.9220  -3.8730  -3.8728
    -3.8600  -3.8597  -3.7550  -3.7544  -3.7491  -3.7482  -3.7109  -3.7025
    -3.6875  -3.6578  -3.6577  -3.6290  -3.6287  -3.6079  -3.6070  -3.5937
    -3.5932  -3.5390  -3.5384  -3.5232  -3.5057  -3.5025  -3.4923  -3.4915
    -3.4912  -3.4855  -3.4628  -3.4616  -3.4263  -3.4261  -3.4044  -3.4031
    -3.3712  -3.3702  -3.3526  -3.3250  -3.3248  -3.2876  -3.2873  -3.2518
    -3.2443  -3.2436  -3.2297  -3.2293  -3.2246  -3.2244  -3.1863  -3.1757
    -3.1352  -3.1350  -3.1270  -3.1177  -3.1169  -3.1155  -3.0912  -3.0911
    -3.0699  -3.0696  -3.0690  -3.0423  -3.0422  -3.0346  -3.0320  -3.0316
    -2.9957  -2.9917  -2.9564  -2.9559  -2.9552  -2.9524  -2.9520  -2.8728
    -2.8629  -2.8587  -2.8583  -2.8571  -2.8568  -2.8525  -2.8518  -2.8514
    -2.8512  -2.8417  -2.8339  -2.8173  -2.8143  -2.8142  -2.8134  -2.7988
    -2.7942  -2.7562  -2.7554  -2.7551  -2.7512  -2.7507  -2.7325  -2.7323
    -2.7236  -2.7236  -2.7211  -2.6619  -2.6618  -2.6563  -2.6561  -2.6517
    -2.6512  -2.6234  -2.5640  -2.5629  -2.5624  -2.5603  -2.5490  -2.5471
    -2.5426  -2.5315  -2.5309  -2.4949  -2.4939  -2.4855  -2.4850  -2.4845
    -2.4840  -2.4448  -2.4445  -2.4347  -2.4344  -2.4330  -2.4327  -2.3913
    -2.3758  -2.3698  -2.3159  -2.3156  -2.2978  -2.2959  -2.2911  -2.2904
    -2.2421  -2.2413  -2.2179  -2.2023  -2.1877  -2.1869  -2.1863  -2.1647
    -2.1642  -2.1546  -2.1397  -2.0982  -2.0971  -2.0842  -2.0828  -2.0822
    -2.0719  -2.0713  -2.0572  -2.0562  -2.0557  -2.0513  -2.0472  -2.0462
    -2.0457  -2.0341  -2.0336  -2.0164  -2.0156  -2.0137  -2.0075  -2.0044
    -2.0043  -1.9808  -1.9805  -1.9704  -1.9672  -1.9649  -1.9621  -1.9249
    -1.8913  -1.8900  -1.8544  -1.8374  -1.8371  -1.8283  -1.8261  -1.8054
    -1.8026  -1.7907  -1.7877  -1.7871  -1.7859  -1.7842  -1.7828  -1.7529
    -1.7501  -1.7499  -1.7082  -1.7039  -1.6694  -1.6643  -1.6361  -1.6166
    -1.6106  -1.5956  -1.5815  -1.5740  -1.5714  -1.5563  -1.5525  -1.5384
    -1.5374  -1.5331  -1.5328  -1.5315  -1.5311  -1.5286  -1.5202  -1.5082
    -1.5055  -1.4806  -1.4799  -1.4615  -1.4609  -1.4354  -1.4346  -1.4318
    -1.4313  -1.4263  -1.4191  -1.4039  -1.3987  -1.3885  -1.3797  -1.3656
    -1.3641  -1.3515  -1.3444  -1.3209  -1.3205  -1.3128  -1.3068  -1.2769
    -1.2747  -1.2682  -1.2660  -1.2597  -1.2553  -1.2379  -1.2374  -1.2260
    -1.2190  -1.2178  -1.2063  -1.2056  -1.2049  -1.1992  -1.1907  -1.1801
    -1.1793  -1.1719  -1.1718  -1.1589  -1.1553  -1.1497  -1.1485  -1.1091
    -1.1062  -1.1006  -1.0998  -1.0993  -1.0969  -1.0599  -1.0431  -1.0427
    -1.0421  -1.0402  -1.0378  -1.0334  -1.0325  -1.0174  -1.0165  -0.9808
    -0.9786  -0.9734  -0.9728  -0.9505  -0.9503  -0.9406  -0.9110  -0.9032
    -0.8758  -0.8754  -0.8478  -0.8476  -0.8446  -0.8436  -0.8428  -0.8386
    -0.8335  -0.8328  -0.8292  -0.8286  -0.7968  -0.7966  -0.7788  -0.7755
    -0.7734  -0.7728  -0.7714  -0.7665  -0.7525  -0.4765  -0.4666  -0.4108
    -0.4041  -0.3710  -0.2108  -0.1455  -0.1450  -0.1111   0.1736   0.1752
     0.5035   0.5073   0.6026   0.6030   0.6438   0.6445   0.7869   0.7904
     0.9117   0.9136   1.0017   1.5988   1.6169   1.6179   1.6561   1.6623
     1.7046   1.7103   1.7868   1.7889   1.9942   1.9948   2.2293   2.3088
     2.3115   2.3258   2.7045   2.7093   2.7799   2.7805   2.7874   2.7879
     2.9381   2.9398   2.9820   3.0816   3.0835   3.3134   3.3162   3.4490
     3.4762   3.4773   3.7468   3.7484   3.8604   3.8796   3.8800   3.9269
     3.9556   4.0659   4.0671   4.3025   4.3043   4.3904   4.3925   4.5161
     4.5184   4.5387   4.5446   4.6647   4.9450   5.3304   5.3446   5.4393
     5.4467   5.4916   5.6263   5.6282   5.6667   5.7034   5.7407   5.7426
     5.7501   5.7946   5.7970   5.8388   6.0312   6.0711   6.0803   6.1080
     6.1222   6.1326   6.1378   6.1395   6.1488   6.1494   6.1919   6.2042

          k =-0.2500-0.2500 0.0833 (167653 PWs)   bands (ev):

   -19.4636  -7.2850  -6.8261  -6.2978  -6.2973  -5.8680  -5.4593  -5.3659
    -5.3655  -5.1698  -5.1696  -5.0524  -5.0517  -4.9733  -4.9505  -4.8773
    -4.7924  -4.7887  -4.7499  -4.7497  -4.5890  -4.5721  -4.5711  -4.5708
    -4.5639  -4.5082  -4.5081  -4.4963  -4.4960  -4.4592  -4.4469  -4.4463
    -4.4044  -4.4044  -4.3710  -4.3697  -4.3181  -4.3176  -4.3072  -4.3058
    -4.3003  -4.2872  -4.2871  -4.2462  -4.2279  -4.2277  -4.2208  -4.2206
    -4.1887  -4.1391  -4.1236  -4.1233  -4.1205  -4.1194  -4.1117  -4.1061
    -4.1059  -4.1055  -4.0413  -4.0405  -3.9909  -3.9905  -3.9784  -3.9525
    -3.9521  -3.9327  -3.9296  -3.9291  -3.9249  -3.9220  -3.8730  -3.8728
    -3.8600  -3.8597  -3.7550  -3.7544  -3.7491  -3.7482  -3.7109  -3.7025
    -3.6875  -3.6578  -3.6577  -3.6290  -3.6287  -3.6079  -3.6070  -3.5937
    -3.5932  -3.5390  -3.5384  -3.5232  -3.5057  -3.5025  -3.4923  -3.4915
    -3.4912  -3.4855  -3.4628  -3.4616  -3.4264  -3.4261  -3.4044  -3.4031
    -3.3712  -3.3702  -3.3526  -3.3250  -3.3248  -3.2876  -3.2873  -3.2518
    -3.2443  -3.2436  -3.2297  -3.2293  -3.2246  -3.2244  -3.1863  -3.1757
    -3.1352  -3.1350  -3.1270  -3.1177  -3.1169  -3.1155  -3.0912  -3.0911
    -3.0699  -3.0696  -3.0690  -3.0424  -3.0422  -3.0346  -3.0320  -3.0317
    -2.9957  -2.9917  -2.9564  -2.9558  -2.9552  -2.9524  -2.9520  -2.8728
    -2.8629  -2.8587  -2.8583  -2.8571  -2.8568  -2.8525  -2.8518  -2.8514
    -2.8512  -2.8417  -2.8339  -2.8173  -2.8143  -2.8142  -2.8134  -2.7988
    -2.7942  -2.7562  -2.7554  -2.7551  -2.7512  -2.7507  -2.7325  -2.7323
    -2.7236  -2.7236  -2.7211  -2.6619  -2.6618  -2.6563  -2.6561  -2.6517
    -2.6512  -2.6234  -2.5640  -2.5629  -2.5624  -2.5603  -2.5490  -2.5471
    -2.5426  -2.5315  -2.5309  -2.4949  -2.4939  -2.4855  -2.4850  -2.4845
    -2.4840  -2.4448  -2.4445  -2.4347  -2.4344  -2.4330  -2.4327  -2.3913
    -2.3758  -2.3698  -2.3159  -2.3156  -2.2978  -2.2959  -2.2911  -2.2904
    -2.2421  -2.2413  -2.2179  -2.2023  -2.1877  -2.1869  -2.1863  -2.1647
    -2.1642  -2.1546  -2.1397  -2.0982  -2.0971  -2.0842  -2.0828  -2.0822
    -2.0719  -2.0713  -2.0572  -2.0562  -2.0557  -2.0513  -2.0472  -2.0462
    -2.0457  -2.0341  -2.0336  -2.0164  -2.0156  -2.0137  -2.0075  -2.0044
    -2.0043  -1.9808  -1.9805  -1.9704  -1.9672  -1.9649  -1.9621  -1.9249
    -1.8913  -1.8900  -1.8543  -1.8374  -1.8371  -1.8283  -1.8261  -1.8054
    -1.8026  -1.7907  -1.7877  -1.7871  -1.7859  -1.7842  -1.7828  -1.7529
    -1.7501  -1.7499  -1.7082  -1.7039  -1.6694  -1.6643  -1.6361  -1.6166
    -1.6106  -1.5956  -1.5815  -1.5740  -1.5714  -1.5563  -1.5525  -1.5384
    -1.5374  -1.5331  -1.5328  -1.5315  -1.5311  -1.5286  -1.5202  -1.5082
    -1.5055  -1.4806  -1.4799  -1.4615  -1.4609  -1.4354  -1.4346  -1.4318
    -1.4313  -1.4264  -1.4191  -1.4039  -1.3988  -1.3885  -1.3797  -1.3656
    -1.3641  -1.3515  -1.3444  -1.3209  -1.3205  -1.3128  -1.3068  -1.2769
    -1.2747  -1.2682  -1.2660  -1.2597  -1.2553  -1.2379  -1.2375  -1.2260
    -1.2190  -1.2178  -1.2063  -1.2056  -1.2049  -1.1992  -1.1907  -1.1801
    -1.1792  -1.1719  -1.1718  -1.1589  -1.1553  -1.1497  -1.1485  -1.1091
    -1.1062  -1.1006  -1.0998  -1.0993  -1.0969  -1.0599  -1.0431  -1.0427
    -1.0421  -1.0402  -1.0378  -1.0334  -1.0325  -1.0174  -1.0165  -0.9808
    -0.9786  -0.9734  -0.9728  -0.9505  -0.9503  -0.9406  -0.9110  -0.9032
    -0.8758  -0.8754  -0.8478  -0.8476  -0.8446  -0.8436  -0.8428  -0.8386
    -0.8335  -0.8328  -0.8292  -0.8286  -0.7968  -0.7966  -0.7788  -0.7755
    -0.7734  -0.7728  -0.7714  -0.7665  -0.7525  -0.4765  -0.4666  -0.4108
    -0.4041  -0.3710  -0.2108  -0.1455  -0.1450  -0.1111   0.1736   0.1752
     0.5035   0.5073   0.6026   0.6030   0.6438   0.6445   0.7869   0.7904
     0.9117   0.9136   1.0017   1.5988   1.6169   1.6179   1.6561   1.6623
     1.7046   1.7103   1.7868   1.7889   1.9942   1.9948   2.2293   2.3088
     2.3115   2.3258   2.7045   2.7093   2.7799   2.7805   2.7874   2.7879
     2.9381   2.9398   2.9820   3.0816   3.0835   3.3134   3.3162   3.4490
     3.4762   3.4773   3.7468   3.7484   3.8604   3.8796   3.8800   3.9268
     3.9556   4.0659   4.0671   4.3026   4.3043   4.3904   4.3925   4.5161
     4.5184   4.5387   4.5446   4.6647   4.9490   5.3311   5.3487   5.4414
     5.4472   5.4983   5.6255   5.6280   5.6503   5.6988   5.7215   5.7427
     5.7463   5.7948   5.7970   5.8391   6.0034   6.0593   6.0998   6.1077
     6.1240   6.1296   6.1375   6.1383   6.1488   6.1495   6.1616   6.2040

          k =-0.2500 0.2500-0.0833 (167653 PWs)   bands (ev):

   -19.4636  -7.2850  -6.8261  -6.2981  -6.2970  -5.8680  -5.4593  -5.3663
    -5.3651  -5.1698  -5.1696  -5.0529  -5.0512  -4.9733  -4.9505  -4.8774
    -4.7925  -4.7886  -4.7500  -4.7495  -4.5890  -4.5722  -4.5713  -4.5704
    -4.5639  -4.5083  -4.5080  -4.4966  -4.4958  -4.4592  -4.4473  -4.4459
    -4.4045  -4.4043  -4.3709  -4.3697  -4.3185  -4.3171  -4.3073  -4.3057
    -4.3003  -4.2872  -4.2871  -4.2463  -4.2280  -4.2276  -4.2210  -4.2204
    -4.1888  -4.1392  -4.1239  -4.1230  -4.1203  -4.1194  -4.1117  -4.1062
    -4.1059  -4.1055  -4.0417  -4.0399  -3.9914  -3.9902  -3.9784  -3.9524
    -3.9520  -3.9326  -3.9295  -3.9292  -3.9251  -3.9220  -3.8731  -3.8729
    -3.8603  -3.8594  -3.7554  -3.7541  -3.7491  -3.7479  -3.7109  -3.7025
    -3.6875  -3.6579  -3.6576  -3.6293  -3.6284  -3.6078  -3.6068  -3.5943
    -3.5928  -3.5389  -3.5382  -3.5271  -3.5047  -3.5020  -3.4917  -3.4913
    -3.4905  -3.4844  -3.4631  -3.4623  -3.4263  -3.4256  -3.4046  -3.4032
    -3.3713  -3.3701  -3.3526  -3.3249  -3.3246  -3.2878  -3.2872  -3.2519
    -3.2443  -3.2436  -3.2301  -3.2291  -3.2246  -3.2243  -3.1863  -3.1757
    -3.1352  -3.1350  -3.1270  -3.1178  -3.1168  -3.1155  -3.0913  -3.0911
    -3.0702  -3.0697  -3.0687  -3.0423  -3.0421  -3.0346  -3.0320  -3.0316
    -2.9957  -2.9916  -2.9568  -2.9556  -2.9553  -2.9524  -2.9519  -2.8728
    -2.8629  -2.8590  -2.8579  -2.8574  -2.8566  -2.8526  -2.8519  -2.8514
    -2.8510  -2.8417  -2.8339  -2.8173  -2.8146  -2.8142  -2.8132  -2.7988
    -2.7942  -2.7562  -2.7553  -2.7551  -2.7515  -2.7503  -2.7328  -2.7320
    -2.7238  -2.7234  -2.7211  -2.6620  -2.6617  -2.6563  -2.6561  -2.6518
    -2.6510  -2.6233  -2.5640  -2.5629  -2.5624  -2.5603  -2.5490  -2.5471
    -2.5426  -2.5316  -2.5308  -2.4953  -2.4935  -2.4861  -2.4852  -2.4843
    -2.4837  -2.4452  -2.4443  -2.4348  -2.4344  -2.4334  -2.4324  -2.3913
    -2.3758  -2.3698  -2.3161  -2.3154  -2.2976  -2.2960  -2.2912  -2.2903
    -2.2426  -2.2407  -2.2179  -2.2022  -2.1878  -2.1871  -2.1862  -2.1647
    -2.1642  -2.1546  -2.1397  -2.0982  -2.0970  -2.0839  -2.0832  -2.0818
    -2.0722  -2.0711  -2.0575  -2.0561  -2.0555  -2.0513  -2.0475  -2.0463
    -2.0451  -2.0342  -2.0335  -2.0162  -2.0156  -2.0137  -2.0075  -2.0047
    -2.0040  -1.9812  -1.9802  -1.9704  -1.9672  -1.9648  -1.9622  -1.9249
    -1.8912  -1.8902  -1.8543  -1.8375  -1.8370  -1.8282  -1.8260  -1.8056
    -1.8026  -1.7897  -1.7880  -1.7869  -1.7861  -1.7844  -1.7828  -1.7529
    -1.7501  -1.7499  -1.7084  -1.7040  -1.6695  -1.6640  -1.6367  -1.6167
    -1.6102  -1.5961  -1.5816  -1.5740  -1.5713  -1.5562  -1.5525  -1.5385
    -1.5366  -1.5336  -1.5327  -1.5315  -1.5311  -1.5286  -1.5204  -1.5083
    -1.5056  -1.4803  -1.4798  -1.4618  -1.4612  -1.4351  -1.4348  -1.4321
    -1.4311  -1.4259  -1.4190  -1.4043  -1.3979  -1.3891  -1.3799  -1.3656
    -1.3641  -1.3515  -1.3446  -1.3214  -1.3201  -1.3128  -1.3066  -1.2768
    -1.2738  -1.2684  -1.2658  -1.2600  -1.2554  -1.2380  -1.2374  -1.2261
    -1.2191  -1.2177  -1.2064  -1.2056  -1.2051  -1.1994  -1.1908  -1.1798
    -1.1793  -1.1721  -1.1717  -1.1590  -1.1556  -1.1496  -1.1487  -1.1092
    -1.1056  -1.1004  -1.0998  -1.0994  -1.0972  -1.0600  -1.0439  -1.0423
    -1.0419  -1.0403  -1.0387  -1.0326  -1.0323  -1.0174  -1.0162  -0.9811
    -0.9783  -0.9735  -0.9728  -0.9507  -0.9501  -0.9406  -0.9111  -0.9033
    -0.8763  -0.8749  -0.8479  -0.8475  -0.8446  -0.8436  -0.8428  -0.8386
    -0.8335  -0.8328  -0.8294  -0.8284  -0.7970  -0.7963  -0.7800  -0.7754
    -0.7731  -0.7725  -0.7714  -0.7658  -0.7526  -0.4765  -0.4666  -0.4128
    -0.4019  -0.3710  -0.2105  -0.1457  -0.1446  -0.1115   0.1730   0.1759
     0.5014   0.5091   0.6025   0.6032   0.6427   0.6459   0.7858   0.7916
     0.9116   0.9135   1.0019   1.5986   1.6170   1.6178   1.6544   1.6623
     1.6995   1.7165   1.7862   1.7899   1.9937   1.9953   2.2287   2.3059
     2.3139   2.3258   2.6989   2.7135   2.7795   2.7814   2.7868   2.7885
     2.9389   2.9392   2.9806   3.0817   3.0872   3.3131   3.3194   3.4485
     3.4752   3.4778   3.7453   3.7506   3.8577   3.8796   3.8803   3.9199
     3.9636   4.0646   4.0684   4.3034   4.3040   4.3861   4.3954   4.5127
     4.5198   4.5321   4.5483   4.6660   4.9491   5.3223   5.3547   5.4435
     5.4492   5.5036   5.6264   5.6300   5.6437   5.6988   5.7172   5.7403
     5.7481   5.7964   5.7971   5.8411   5.9988   6.0641   6.1013   6.1105
     6.1230   6.1254   6.1340   6.1412   6.1456   6.1488   6.1708   6.2038

          k = 0.2500-0.2500-0.0833 (167653 PWs)   bands (ev):

   -19.4636  -7.2850  -6.8261  -6.2981  -6.2970  -5.8680  -5.4593  -5.3663
    -5.3651  -5.1698  -5.1696  -5.0529  -5.0512  -4.9733  -4.9505  -4.8774
    -4.7925  -4.7886  -4.7500  -4.7495  -4.5890  -4.5722  -4.5713  -4.5704
    -4.5639  -4.5083  -4.5080  -4.4966  -4.4958  -4.4592  -4.4473  -4.4459
    -4.4045  -4.4043  -4.3709  -4.3697  -4.3185  -4.3171  -4.3073  -4.3057
    -4.3003  -4.2872  -4.2871  -4.2463  -4.2280  -4.2276  -4.2210  -4.2204
    -4.1888  -4.1392  -4.1239  -4.1230  -4.1203  -4.1194  -4.1117  -4.1062
    -4.1059  -4.1055  -4.0417  -4.0399  -3.9914  -3.9902  -3.9784  -3.9524
    -3.9520  -3.9326  -3.9295  -3.9292  -3.9251  -3.9220  -3.8731  -3.8729
    -3.8603  -3.8594  -3.7554  -3.7541  -3.7491  -3.7479  -3.7109  -3.7025
    -3.6875  -3.6579  -3.6576  -3.6293  -3.6284  -3.6078  -3.6068  -3.5943
    -3.5928  -3.5389  -3.5382  -3.5271  -3.5047  -3.5020  -3.4917  -3.4913
    -3.4905  -3.4844  -3.4631  -3.4623  -3.4263  -3.4256  -3.4046  -3.4032
    -3.3713  -3.3701  -3.3526  -3.3249  -3.3246  -3.2878  -3.2872  -3.2519
    -3.2443  -3.2436  -3.2301  -3.2291  -3.2246  -3.2243  -3.1863  -3.1757
    -3.1352  -3.1350  -3.1270  -3.1178  -3.1168  -3.1155  -3.0913  -3.0911
    -3.0702  -3.0697  -3.0687  -3.0423  -3.0421  -3.0346  -3.0320  -3.0316
    -2.9957  -2.9916  -2.9568  -2.9556  -2.9553  -2.9524  -2.9519  -2.8728
    -2.8629  -2.8590  -2.8579  -2.8574  -2.8566  -2.8526  -2.8519  -2.8514
    -2.8510  -2.8417  -2.8339  -2.8173  -2.8146  -2.8142  -2.8132  -2.7988
    -2.7942  -2.7562  -2.7553  -2.7551  -2.7515  -2.7503  -2.7328  -2.7320
    -2.7238  -2.7234  -2.7211  -2.6620  -2.6617  -2.6563  -2.6561  -2.6518
    -2.6510  -2.6233  -2.5641  -2.5629  -2.5624  -2.5603  -2.5490  -2.5471
    -2.5426  -2.5316  -2.5308  -2.4953  -2.4935  -2.4861  -2.4852  -2.4843
    -2.4837  -2.4452  -2.4443  -2.4348  -2.4344  -2.4334  -2.4324  -2.3913
    -2.3758  -2.3698  -2.3161  -2.3154  -2.2976  -2.2960  -2.2912  -2.2903
    -2.2426  -2.2407  -2.2179  -2.2022  -2.1878  -2.1871  -2.1862  -2.1647
    -2.1642  -2.1546  -2.1397  -2.0982  -2.0970  -2.0839  -2.0832  -2.0818
    -2.0722  -2.0711  -2.0575  -2.0561  -2.0555  -2.0513  -2.0475  -2.0463
    -2.0451  -2.0342  -2.0335  -2.0162  -2.0156  -2.0137  -2.0075  -2.0047
    -2.0040  -1.9812  -1.9802  -1.9704  -1.9672  -1.9648  -1.9622  -1.9249
    -1.8912  -1.8902  -1.8543  -1.8375  -1.8370  -1.8282  -1.8260  -1.8056
    -1.8026  -1.7897  -1.7880  -1.7869  -1.7861  -1.7844  -1.7828  -1.7529
    -1.7501  -1.7499  -1.7084  -1.7040  -1.6695  -1.6640  -1.6367  -1.6167
    -1.6102  -1.5961  -1.5816  -1.5740  -1.5713  -1.5562  -1.5525  -1.5385
    -1.5366  -1.5336  -1.5327  -1.5315  -1.5311  -1.5286  -1.5204  -1.5083
    -1.5056  -1.4803  -1.4798  -1.4618  -1.4612  -1.4351  -1.4348  -1.4321
    -1.4311  -1.4259  -1.4190  -1.4043  -1.3979  -1.3891  -1.3799  -1.3656
    -1.3641  -1.3515  -1.3446  -1.3214  -1.3201  -1.3128  -1.3066  -1.2768
    -1.2738  -1.2684  -1.2658  -1.2600  -1.2554  -1.2380  -1.2374  -1.2261
    -1.2191  -1.2177  -1.2064  -1.2056  -1.2051  -1.1994  -1.1908  -1.1798
    -1.1793  -1.1721  -1.1717  -1.1590  -1.1556  -1.1496  -1.1487  -1.1092
    -1.1056  -1.1004  -1.0998  -1.0994  -1.0972  -1.0600  -1.0439  -1.0423
    -1.0419  -1.0403  -1.0387  -1.0326  -1.0323  -1.0174  -1.0162  -0.9811
    -0.9783  -0.9735  -0.9728  -0.9507  -0.9501  -0.9406  -0.9111  -0.9033
    -0.8763  -0.8749  -0.8479  -0.8475  -0.8446  -0.8436  -0.8428  -0.8386
    -0.8335  -0.8328  -0.8294  -0.8284  -0.7970  -0.7963  -0.7800  -0.7754
    -0.7731  -0.7725  -0.7714  -0.7658  -0.7526  -0.4765  -0.4666  -0.4128
    -0.4019  -0.3710  -0.2105  -0.1457  -0.1446  -0.1115   0.1730   0.1759
     0.5014   0.5091   0.6025   0.6032   0.6427   0.6459   0.7858   0.7916
     0.9116   0.9135   1.0019   1.5986   1.6170   1.6178   1.6544   1.6623
     1.6995   1.7165   1.7862   1.7899   1.9937   1.9953   2.2287   2.3059
     2.3139   2.3258   2.6989   2.7135   2.7795   2.7814   2.7868   2.7885
     2.9389   2.9392   2.9806   3.0817   3.0872   3.3131   3.3194   3.4485
     3.4752   3.4778   3.7453   3.7506   3.8577   3.8796   3.8803   3.9199
     3.9636   4.0646   4.0684   4.3034   4.3040   4.3861   4.3954   4.5127
     4.5198   4.5321   4.5483   4.6661   4.9491   5.3226   5.3542   5.4431
     5.4493   5.5026   5.6267   5.6300   5.6481   5.6984   5.7153   5.7397
     5.7479   5.7964   5.7971   5.8410   5.9990   6.0579   6.1012   6.1111
     6.1226   6.1265   6.1340   6.1412   6.1454   6.1488   6.1748   6.2120

          k =-0.2500 0.2500 0.2500 (167588 PWs)   bands (ev):

   -19.4636  -7.2850  -6.8261  -6.2981  -6.2970  -5.8680  -5.4593  -5.3663
    -5.3651  -5.1698  -5.1696  -5.0529  -5.0512  -4.9733  -4.9505  -4.8774
    -4.7925  -4.7886  -4.7500  -4.7495  -4.5890  -4.5722  -4.5713  -4.5704
    -4.5639  -4.5083  -4.5080  -4.4966  -4.4958  -4.4592  -4.4473  -4.4459
    -4.4045  -4.4043  -4.3709  -4.3697  -4.3185  -4.3171  -4.3073  -4.3057
    -4.3003  -4.2872  -4.2871  -4.2463  -4.2280  -4.2276  -4.2210  -4.2204
    -4.1888  -4.1392  -4.1239  -4.1230  -4.1203  -4.1194  -4.1117  -4.1062
    -4.1059  -4.1055  -4.0417  -4.0399  -3.9914  -3.9902  -3.9784  -3.9524
    -3.9520  -3.9326  -3.9295  -3.9292  -3.9251  -3.9220  -3.8731  -3.8729
    -3.8603  -3.8594  -3.7554  -3.7541  -3.7491  -3.7479  -3.7109  -3.7025
    -3.6875  -3.6579  -3.6576  -3.6293  -3.6284  -3.6078  -3.6068  -3.5943
    -3.5928  -3.5389  -3.5382  -3.5272  -3.5047  -3.5020  -3.4917  -3.4913
    -3.4905  -3.4844  -3.4631  -3.4623  -3.4263  -3.4256  -3.4046  -3.4032
    -3.3713  -3.3701  -3.3526  -3.3249  -3.3246  -3.2878  -3.2872  -3.2519
    -3.2443  -3.2436  -3.2301  -3.2291  -3.2246  -3.2243  -3.1863  -3.1757
    -3.1352  -3.1350  -3.1270  -3.1178  -3.1168  -3.1155  -3.0913  -3.0911
    -3.0702  -3.0697  -3.0687  -3.0423  -3.0421  -3.0346  -3.0320  -3.0316
    -2.9957  -2.9916  -2.9568  -2.9556  -2.9553  -2.9524  -2.9519  -2.8728
    -2.8629  -2.8590  -2.8579  -2.8574  -2.8566  -2.8526  -2.8519  -2.8514
    -2.8510  -2.8417  -2.8339  -2.8173  -2.8146  -2.8142  -2.8131  -2.7988
    -2.7942  -2.7562  -2.7553  -2.7551  -2.7515  -2.7503  -2.7328  -2.7320
    -2.7238  -2.7234  -2.7211  -2.6620  -2.6617  -2.6563  -2.6561  -2.6518
    -2.6510  -2.6233  -2.5641  -2.5629  -2.5624  -2.5603  -2.5490  -2.5471
    -2.5426  -2.5316  -2.5307  -2.4953  -2.4935  -2.4861  -2.4852  -2.4843
    -2.4837  -2.4452  -2.4443  -2.4348  -2.4344  -2.4334  -2.4324  -2.3913
    -2.3758  -2.3698  -2.3161  -2.3154  -2.2976  -2.2960  -2.2912  -2.2903
    -2.2426  -2.2407  -2.2179  -2.2022  -2.1878  -2.1871  -2.1862  -2.1647
    -2.1642  -2.1546  -2.1397  -2.0982  -2.0970  -2.0839  -2.0832  -2.0818
    -2.0722  -2.0711  -2.0575  -2.0561  -2.0555  -2.0514  -2.0475  -2.0463
    -2.0451  -2.0342  -2.0335  -2.0162  -2.0156  -2.0137  -2.0075  -2.0047
    -2.0040  -1.9812  -1.9802  -1.9704  -1.9672  -1.9648  -1.9622  -1.9249
    -1.8912  -1.8902  -1.8543  -1.8375  -1.8370  -1.8282  -1.8260  -1.8056
    -1.8026  -1.7897  -1.7880  -1.7869  -1.7861  -1.7844  -1.7828  -1.7529
    -1.7501  -1.7499  -1.7084  -1.7040  -1.6695  -1.6640  -1.6367  -1.6167
    -1.6103  -1.5961  -1.5816  -1.5740  -1.5713  -1.5562  -1.5525  -1.5385
    -1.5366  -1.5336  -1.5327  -1.5315  -1.5311  -1.5286  -1.5204  -1.5083
    -1.5056  -1.4803  -1.4798  -1.4618  -1.4612  -1.4351  -1.4348  -1.4321
    -1.4311  -1.4259  -1.4190  -1.4043  -1.3979  -1.3891  -1.3799  -1.3656
    -1.3641  -1.3515  -1.3446  -1.3214  -1.3201  -1.3128  -1.3066  -1.2768
    -1.2738  -1.2684  -1.2658  -1.2600  -1.2554  -1.2380  -1.2374  -1.2261
    -1.2191  -1.2177  -1.2064  -1.2056  -1.2051  -1.1994  -1.1908  -1.1798
    -1.1793  -1.1721  -1.1716  -1.1590  -1.1556  -1.1496  -1.1487  -1.1093
    -1.1056  -1.1005  -1.0998  -1.0994  -1.0972  -1.0600  -1.0439  -1.0423
    -1.0419  -1.0403  -1.0387  -1.0326  -1.0323  -1.0174  -1.0162  -0.9811
    -0.9783  -0.9735  -0.9728  -0.9507  -0.9501  -0.9406  -0.9111  -0.9033
    -0.8763  -0.8749  -0.8479  -0.8475  -0.8446  -0.8436  -0.8428  -0.8386
    -0.8335  -0.8328  -0.8294  -0.8284  -0.7970  -0.7963  -0.7800  -0.7754
    -0.7731  -0.7725  -0.7714  -0.7658  -0.7526  -0.4765  -0.4666  -0.4128
    -0.4019  -0.3710  -0.2105  -0.1457  -0.1446  -0.1115   0.1730   0.1759
     0.5014   0.5091   0.6025   0.6032   0.6427   0.6459   0.7858   0.7916
     0.9116   0.9135   1.0019   1.5986   1.6170   1.6178   1.6544   1.6623
     1.6995   1.7165   1.7862   1.7899   1.9937   1.9953   2.2287   2.3059
     2.3139   2.3258   2.6989   2.7135   2.7795   2.7814   2.7868   2.7885
     2.9389   2.9392   2.9806   3.0817   3.0872   3.3131   3.3194   3.4485
     3.4752   3.4778   3.7453   3.7506   3.8577   3.8796   3.8803   3.9200
     3.9637   4.0646   4.0684   4.3034   4.3040   4.3861   4.3954   4.5127
     4.5198   4.5321   4.5483   4.6661   4.9450   5.3208   5.3520   5.4421
     5.4480   5.4939   5.6268   5.6300   5.6635   5.6979   5.7362   5.7441
     5.7558   5.7964   5.7971   5.8411   6.0271   6.0557   6.0969   6.1084
     6.1206   6.1334   6.1404   6.1435   6.1462   6.1489   6.1842   6.2185

     the Fermi energy is     0.8625 ev

!    total energy              =   -7425.29475285 Ry
     Harris-Foulkes estimate   =   -7425.29475285 Ry
     estimated scf accuracy    <          3.1E-09 Ry

     The total energy is the sum of the following terms:

     one-electron contribution =  -48647.64274261 Ry
     hartree contribution      =   24874.55122736 Ry
     xc contribution           =   -3604.20588907 Ry
     ewald contribution        =   19952.00545794 Ry
     smearing contrib. (-TS)   =      -0.00280647 Ry

     convergence has been achieved in  28 iterations

     Writing output data file 9003400.save

     init_run     :    111.52s CPU    117.44s WALL (       1 calls)
     electrons    :   6592.87s CPU   6880.15s WALL (       1 calls)

     Called by init_run:
     wfcinit      :     79.52s CPU     84.43s WALL (       1 calls)
     potinit      :      6.15s CPU      6.51s WALL (       1 calls)

     Called by electrons:
     c_bands      :   5037.28s CPU   5269.58s WALL (      29 calls)
     sum_band     :    966.22s CPU   1007.57s WALL (      29 calls)
     v_of_rho     :    102.43s CPU    110.68s WALL (      29 calls)
     newd         :    499.39s CPU    502.37s WALL (      29 calls)
     mix_rho      :      2.87s CPU      3.22s WALL (      29 calls)
     vdW_energy   :      6.52s CPU      6.90s WALL (      29 calls)
     vdW_ffts     :     52.77s CPU     56.83s WALL (      58 calls)
     vdW_v        :     14.46s CPU     15.17s WALL (      29 calls)

     Called by c_bands:
     init_us_2    :      9.14s CPU      9.39s WALL (     354 calls)
     cegterg      :   4908.85s CPU   5115.61s WALL (     174 calls)

     Called by *egterg:
     h_psi        :   2172.87s CPU   2351.47s WALL (     882 calls)
     s_psi        :    207.12s CPU    208.15s WALL (     882 calls)
     g_psi        :      4.68s CPU      4.68s WALL (     702 calls)
     cdiaghg      :   1153.95s CPU   1156.36s WALL (     870 calls)

     Called by h_psi:
     add_vuspsi   :    207.53s CPU    208.57s WALL (     882 calls)

     General routines
     calbec       :    527.83s CPU    529.13s WALL (    1056 calls)
     fft          :    296.84s CPU    305.22s WALL (    1914 calls)
     ffts         :      1.25s CPU      1.47s WALL (      58 calls)
     fftw         :   1881.19s CPU   2087.81s WALL (  469184 calls)
     interpolate  :      3.23s CPU      3.85s WALL (      58 calls)
     davcio       :      0.00s CPU      0.10s WALL (       6 calls)

     Parallel routines
     fft_scatter  :   1676.54s CPU   1862.93s WALL (  471156 calls)

     PWSCF        :     1h52m CPU        1h57m WALL


   This run was terminated on:  22:44: 4  24Jun2015            

=------------------------------------------------------------------------------=
   JOB DONE.
=------------------------------------------------------------------------------=
