Setting SGE environment for SCC

     Program PWSCF v.5.1.2 starts on 25Jun2015 at  3:35:31 

     This program is part of the open-source Quantum ESPRESSO suite
     for quantum simulation of materials; please cite
         "P. Giannozzi et al., J. Phys.:Condens. Matter 21 395502 (2009);
          URL http://www.quantum-espresso.org", 
     in publications or presentations arising from this work. More details at
     http://www.quantum-espresso.org/quote

     Parallel version (MPI), running on    32 processors
     R & G space division:  proc/nbgrp/npool/nimage =      32
     Reading input from top.O1.Au62.d.3.4.phi.25.psi.180.in
Warning: card &IONS ignored
Warning: card / ignored
Warning: card &CELL ignored
Warning: card / ignored

     Current dimensions of program PWSCF are:
     Max number of different atomic species (ntypx) = 10
     Max number of k-points (npk) =  40000
     Max angular momentum in pseudopotentials (lmaxx) =  3

     IMPORTANT: XC functional enforced from input :
     Exchange-correlation      = VDW-DF ( 1  4  4  0 1 0)
     Any further DFT definition will be discarded
     Please, verify this is what you really want


     Subspace diagonalization in iterative solution of the eigenvalue problem:
     a serial algorithm will be used


     Parallelization info
     --------------------
     sticks:   dense  smooth     PW     G-vecs:    dense   smooth      PW
     Min         578     289     74               118518    41891    5486
     Max         579     290     75               118533    41932    5497
     Sum       18505    9265   2385              3792731  1341081  175711


     Title: 
     top.O1.Au62.d.3.4.phi.25.psi.180                                           


     bravais-lattice index     =            8
     lattice parameter (alat)  =      24.1233  a.u.
     unit-cell volume          =   28076.2361 (a.u.)^3
     number of atoms/cell      =           75
     number of atomic types    =            3
     number of electrons       =       800.00
     number of Kohn-Sham states=          480
     kinetic-energy cutoff     =      50.0000  Ry
     charge density cutoff     =     400.0000  Ry
     convergence threshold     =      1.0E-08
     mixing beta               =       0.7000
     number of iterations used =            8  plain     mixing
     Exchange-correlation      = VDW-DF ( 1  4  4  0 1 0)

     celldm(1)=  24.123277  celldm(2)=   1.000000  celldm(3)=   2.000000
     celldm(4)=   0.000000  celldm(5)=   0.000000  celldm(6)=   0.000000

     crystal axes: (cart. coord. in units of alat)
               a(1) = (   1.000000   0.000000   0.000000 )  
               a(2) = (   0.000000   1.000000   0.000000 )  
               a(3) = (   0.000000   0.000000   2.000000 )  

     reciprocal axes: (cart. coord. in units 2 pi/alat)
               b(1) = (  1.000000  0.000000  0.000000 )  
               b(2) = (  0.000000  1.000000  0.000000 )  
               b(3) = (  0.000000  0.000000  0.500000 )  


     PseudoPot. # 1 for Au read from file:
     /home/scc/andrejb/qe/pseudo/Au.pbe-nd-van.UPF
     MD5 check sum: 458681b50f36d87ef23c61b04bba420a
     Pseudo is Ultrasoft + core correction, Zval = 11.0
     Generated by new atomic code, or converted to UPF format
     Using radial grid of  985 points,  3 beta functions with: 
                l(1) =   1
                l(2) =   2
                l(3) =   2
     Q(r) pseudized with  8 coefficients,  rinner =    1.100   1.100   1.100
                                                       1.100   1.100

     PseudoPot. # 2 for H  read from file:
     /home/scc/andrejb/qe/pseudo/H.pbe-van_ak.UPF
     MD5 check sum: 403db7282739603aa925980fa9b8608d
     Pseudo is Ultrasoft, Zval =  1.0
     Generated by new atomic code, or converted to UPF format
     Using radial grid of  615 points,  1 beta functions with: 
                l(1) =   0
     Q(r) pseudized with  8 coefficients,  rinner =    0.800

     PseudoPot. # 3 for O  read from file:
     /home/scc/andrejb/qe/pseudo/O.pbe-van_ak.UPF
     MD5 check sum: 4b8c549914a63cae506c6ff22b5af4fe
     Pseudo is Ultrasoft, Zval =  6.0
     Generated by new atomic code, or converted to UPF format
     Using radial grid of  737 points,  4 beta functions with: 
                l(1) =   0
                l(2) =   0
                l(3) =   1
                l(4) =   1
     Q(r) pseudized with  8 coefficients,  rinner =    0.800   0.800   0.800


     vdW kernel table read from file vdW_kernel_table
     MD5 check sum: 48e77a2e26edf626eeb0eaa751ad5cac

     atomic species   valence    mass     pseudopotential
        Au            11.00   196.96657     Au( 1.00)
        H              1.00     1.01000     H ( 1.00)
        O              6.00    16.00000     O ( 1.00)

     No symmetry found



   Cartesian axes

     site n.     atom                  positions (alat units)
         1           O   tau(   1) = (   0.4998324   0.3332216   0.7656616  )
         2           H   tau(   2) = (   0.4742046   0.3888446   0.7201677  )
         3           H   tau(   3) = (   0.5246755   0.2792689   0.7178040  )
         4           Au  tau(   4) = (   0.0000000   0.0000000   0.0000000  )
         5           Au  tau(   5) = (   0.3332217   0.0000000   0.0000000  )
         6           Au  tau(   6) = (   0.6664435   0.0000000   0.0000000  )
         7           Au  tau(   7) = (   0.1666109   0.1666109   0.0000000  )
         8           Au  tau(   8) = (   0.4998326   0.1666109   0.0000000  )
         9           Au  tau(   9) = (   0.8330542   0.1666109   0.0000000  )
        10           Au  tau(  10) = (   0.0000000   0.3332217   0.0000000  )
        11           Au  tau(  11) = (   0.3332217   0.3332217   0.0000000  )
        12           Au  tau(  12) = (   0.6664435   0.3332217   0.0000000  )
        13           Au  tau(  13) = (   0.1666109   0.4998326   0.0000000  )
        14           Au  tau(  14) = (   0.4998326   0.4998326   0.0000000  )
        15           Au  tau(  15) = (   0.8330542   0.4998326   0.0000000  )
        16           Au  tau(  16) = (   0.0000000   0.6664435   0.0000000  )
        17           Au  tau(  17) = (   0.3332217   0.6664435   0.0000000  )
        18           Au  tau(  18) = (   0.6664435   0.6664435   0.0000000  )
        19           Au  tau(  19) = (   0.1666109   0.8330542   0.0000000  )
        20           Au  tau(  20) = (   0.4998326   0.8330542   0.0000000  )
        21           Au  tau(  21) = (   0.8330542   0.8330542   0.0000000  )
        22           Au  tau(  22) = (   0.1666109   0.0000000   0.1666109  )
        23           Au  tau(  23) = (   0.4998326   0.0000000   0.1666109  )
        24           Au  tau(  24) = (   0.8330542   0.0000000   0.1666109  )
        25           Au  tau(  25) = (   0.0000000   0.1666109   0.1666109  )
        26           Au  tau(  26) = (   0.3332217   0.1666109   0.1666109  )
        27           Au  tau(  27) = (   0.6664435   0.1666109   0.1666109  )
        28           Au  tau(  28) = (   0.1666109   0.3332217   0.1666109  )
        29           Au  tau(  29) = (   0.4998326   0.3332217   0.1666109  )
        30           Au  tau(  30) = (   0.8330542   0.3332217   0.1666109  )
        31           Au  tau(  31) = (   0.0000000   0.4998326   0.1666109  )
        32           Au  tau(  32) = (   0.3332217   0.4998326   0.1666109  )
        33           Au  tau(  33) = (   0.6664435   0.4998326   0.1666109  )
        34           Au  tau(  34) = (   0.1666109   0.6664435   0.1666109  )
        35           Au  tau(  35) = (   0.4998326   0.6664435   0.1666109  )
        36           Au  tau(  36) = (   0.8330542   0.6664435   0.1666109  )
        37           Au  tau(  37) = (   0.0000000   0.8330542   0.1666109  )
        38           Au  tau(  38) = (   0.3332217   0.8330542   0.1666109  )
        39           Au  tau(  39) = (   0.6664435   0.8330542   0.1666109  )
        40           Au  tau(  40) = (  -0.0000182  -0.0000182   0.3335478  )
        41           Au  tau(  41) = (   0.3332215  -0.0000181   0.3335472  )
        42           Au  tau(  42) = (   0.6664447  -0.0000183   0.3335481  )
        43           Au  tau(  43) = (  -0.0000181   0.3332215   0.3335472  )
        44           Au  tau(  44) = (   0.3332215   0.3332215   0.3335468  )
        45           Au  tau(  45) = (   0.6664445   0.3332215   0.3335478  )
        46           Au  tau(  46) = (  -0.0000183   0.6664447   0.3335481  )
        47           Au  tau(  47) = (   0.3332215   0.6664445   0.3335478  )
        48           Au  tau(  48) = (   0.6664446   0.6664446   0.3335486  )
        49           Au  tau(  49) = (   0.1666097   0.1666097   0.3335483  )
        50           Au  tau(  50) = (   0.4998320   0.1666098   0.3335477  )
        51           Au  tau(  51) = (   0.8330732   0.1666096   0.3335481  )
        52           Au  tau(  52) = (   0.1666098   0.4998320   0.3335477  )
        53           Au  tau(  53) = (   0.4998321   0.4998321   0.3335470  )
        54           Au  tau(  54) = (   0.8330730   0.4998322   0.3335474  )
        55           Au  tau(  55) = (   0.1666096   0.8330732   0.3335481  )
        56           Au  tau(  56) = (   0.4998322   0.8330730   0.3335474  )
        57           Au  tau(  57) = (   0.8330731   0.8330731   0.3335478  )
        58           Au  tau(  58) = (   0.1666104  -0.0000111   0.4993095  )
        59           Au  tau(  59) = (   0.4998323  -0.0000112   0.4993099  )
        60           Au  tau(  60) = (   0.8330661  -0.0000111   0.4993009  )
        61           Au  tau(  61) = (  -0.0000111   0.1666104   0.4993095  )
        62           Au  tau(  62) = (   0.3332214   0.1666106   0.4993185  )
        63           Au  tau(  63) = (   0.6664437   0.1666106   0.4993187  )
        64           Au  tau(  64) = (   0.1666106   0.3332214   0.4993185  )
        65           Au  tau(  65) = (   0.4998324   0.3332216   0.4993185  )
        66           Au  tau(  66) = (   0.8330659   0.3332215   0.4993103  )
        67           Au  tau(  67) = (  -0.0000112   0.4998323   0.4993099  )
        68           Au  tau(  68) = (   0.3332216   0.4998324   0.4993185  )
        69           Au  tau(  69) = (   0.6664436   0.4998325   0.4993187  )
        70           Au  tau(  70) = (   0.1666106   0.6664437   0.4993187  )
        71           Au  tau(  71) = (   0.4998325   0.6664436   0.4993187  )
        72           Au  tau(  72) = (   0.8330658   0.6664438   0.4993102  )
        73           Au  tau(  73) = (  -0.0000111   0.8330661   0.4993009  )
        74           Au  tau(  74) = (   0.3332215   0.8330659   0.4993103  )
        75           Au  tau(  75) = (   0.6664438   0.8330658   0.4993102  )

     number of k points=     6  Marzari-Vanderbilt smearing, width (Ry)=  0.0200
                       cart. coord. in units 2pi/alat
        k(    1) = (   0.2500000   0.2500000   0.0833333), wk =   0.3333333
        k(    2) = (   0.2500000   0.2500000  -0.2500000), wk =   0.3333333
        k(    3) = (  -0.2500000  -0.2500000   0.0833333), wk =   0.3333333
        k(    4) = (  -0.2500000   0.2500000  -0.0833333), wk =   0.3333333
        k(    5) = (   0.2500000  -0.2500000  -0.0833333), wk =   0.3333333
        k(    6) = (  -0.2500000   0.2500000   0.2500000), wk =   0.3333333

     Dense  grid:  3792731 G-vectors     FFT dimensions: ( 160, 160, 320)

     Smooth grid:  1341081 G-vectors     FFT dimensions: ( 120, 120, 225)

     Largest allocated arrays     est. size (Mb)     dimensions
        Kohn-Sham Wavefunctions        38.58 Mb     (    5267,  480)
        NL pseudopotentials            76.03 Mb     (    5267,  946)
        Each V/rho on FFT grid          3.91 Mb     (  256000)
        Each G-vector array             0.90 Mb     (  118520)
        G-vector shells                 0.08 Mb     (   10286)
     Largest temporary arrays     est. size (Mb)     dimensions
        Auxiliary wavefunctions       154.31 Mb     (    5267, 1920)
        Each subspace H/S matrix       56.25 Mb     (    1920, 1920)
        Each <psi_i|beta_j> matrix      6.93 Mb     (     946,  480)
        Arrays for rho mixing          31.25 Mb     (  256000,    8)

     Initial potential from superposition of free atoms
     Check: negative starting charge=   -1.945215

     starting charge  799.16392, renormalised to  800.00000

     negative rho (up, down):  1.947E+00 0.000E+00


     ************************************************************************
     *
     * You are using vdW-DF for exchange-correlation in this calculation.
     * Please cite the following three references that made this development
     * possible:
     *
     *   M. Dion, H. Rydberg, E. Schroder, D. C. Langreth, and
     *   B. I. Lundqvist, Phys. Rev. Lett. 92, 246401 (2004).
     *
     *   T. Thonhauser, V. R. Cooper, S. Li, A. Puzder, P. Hyldgaard, and
     *   D. C. Langreth, Phys. Rev. B 76, 125112 (2007).
     *
     *   G. Roman-Perez and J. M. Soler, Phys. Rev. Lett. 103, 096102 (2009).
     *
     *
     * If you are using vdW-DF2, please also cite:
     *
     *   K. Lee, E. D. Murray, L. Kong, B. I. Lundqvist, and
     *   D. C. Langreth, Phys. Rev. B 82, 081101(R) (2010).
     *
     *
     * If you are calculating the stress with vdW-DF, please also cite:
     *
     *   R. Sabatini, E. Kucukbenli, B. Kolb, T. Thonhauser, and
     *   S. de Gironcoli, J. Phys.: Condens. Matter 24, 424209 (2012).
     *
     ************************************************************************

     Carrying out vdW-DF run using the following parameters:

     Nqs =      20    Nr_points =    1024   r_max =   100.000
     q_mesh =
               0.00001000     0.04494208     0.09755937     0.15916263
               0.23128650     0.31572767     0.41458969     0.53033537
               0.66584808     0.82450364     1.01025438     1.22772762
               1.48234092     1.78043706     2.12944203     2.53805004
               3.01644009     3.57652955     4.23227104     5.00000000

     Gradients computed in reciprocal space

     ************************************************************************


     Starting wfc are  654 randomized atomic wfcs

     total cpu time spent up to now is      104.8 secs

     Self-consistent Calculation

     iteration #  1     ecut=    50.00 Ry     beta=0.70
     Davidson diagonalization with overlap
     ethr =  1.00E-02,  avg # of iterations =  3.0

     Threshold (ethr) on eigenvalues was too large:
     Diagonalizing with lowered threshold

     Davidson diagonalization with overlap
     ethr =  4.20E-04,  avg # of iterations =  2.0

     negative rho (up, down):  1.947E+00 0.000E+00

     total cpu time spent up to now is      505.2 secs

     total energy              =   -7423.04326076 Ry
     Harris-Foulkes estimate   =   -7426.06627946 Ry
     estimated scf accuracy    <       3.73814276 Ry

     iteration #  2     ecut=    50.00 Ry     beta=0.70
     Davidson diagonalization with overlap
     ethr =  4.67E-04,  avg # of iterations = 11.3

     negative rho (up, down):  1.943E+00 0.000E+00

     total cpu time spent up to now is     1203.4 secs

     total energy              =   -7415.30008451 Ry
     Harris-Foulkes estimate   =   -7432.59297948 Ry
     estimated scf accuracy    <      89.81360854 Ry

     iteration #  3     ecut=    50.00 Ry     beta=0.70
     Davidson diagonalization with overlap
     ethr =  4.67E-04,  avg # of iterations =  6.0

     negative rho (up, down):  1.953E+00 0.000E+00

     total cpu time spent up to now is     1644.0 secs

     total energy              =   -7423.98103677 Ry
     Harris-Foulkes estimate   =   -7425.93784518 Ry
     estimated scf accuracy    <       8.56304209 Ry

     iteration #  4     ecut=    50.00 Ry     beta=0.70
     Davidson diagonalization with overlap
     ethr =  4.67E-04,  avg # of iterations =  6.3

     negative rho (up, down):  1.955E+00 0.000E+00

     total cpu time spent up to now is     1905.0 secs

     total energy              =   -7424.63226764 Ry
     Harris-Foulkes estimate   =   -7425.83845661 Ry
     estimated scf accuracy    <       8.01659434 Ry

     iteration #  5     ecut=    50.00 Ry     beta=0.70
     Davidson diagonalization with overlap
     ethr =  4.67E-04,  avg # of iterations =  6.0

     negative rho (up, down):  1.963E+00 0.000E+00

     total cpu time spent up to now is     2158.7 secs

     total energy              =   -7425.14868486 Ry
     Harris-Foulkes estimate   =   -7425.53455365 Ry
     estimated scf accuracy    <       2.60414798 Ry

     iteration #  6     ecut=    50.00 Ry     beta=0.70
     Davidson diagonalization with overlap
     ethr =  3.26E-04,  avg # of iterations =  3.0

     negative rho (up, down):  1.967E+00 0.000E+00

     total cpu time spent up to now is     2363.7 secs

     total energy              =   -7425.28141291 Ry
     Harris-Foulkes estimate   =   -7425.33349329 Ry
     estimated scf accuracy    <       0.17363566 Ry

     iteration #  7     ecut=    50.00 Ry     beta=0.70
     Davidson diagonalization with overlap
     ethr =  2.17E-05,  avg # of iterations =  9.7

     negative rho (up, down):  1.970E+00 0.000E+00

     total cpu time spent up to now is     2688.7 secs

     total energy              =   -7425.28135270 Ry
     Harris-Foulkes estimate   =   -7425.33276021 Ry
     estimated scf accuracy    <       0.27466645 Ry

     iteration #  8     ecut=    50.00 Ry     beta=0.70
     Davidson diagonalization with overlap
     ethr =  2.17E-05,  avg # of iterations =  3.0

     negative rho (up, down):  1.971E+00 0.000E+00

     total cpu time spent up to now is     2912.6 secs

     total energy              =   -7425.29282969 Ry
     Harris-Foulkes estimate   =   -7425.31019055 Ry
     estimated scf accuracy    <       0.07010729 Ry

     iteration #  9     ecut=    50.00 Ry     beta=0.70
     Davidson diagonalization with overlap
     ethr =  8.76E-06,  avg # of iterations =  4.0

     negative rho (up, down):  1.972E+00 0.000E+00

     total cpu time spent up to now is     3138.5 secs

     total energy              =   -7425.29235150 Ry
     Harris-Foulkes estimate   =   -7425.30266323 Ry
     estimated scf accuracy    <       0.03571239 Ry

     iteration # 10     ecut=    50.00 Ry     beta=0.70
     Davidson diagonalization with overlap
     ethr =  4.46E-06,  avg # of iterations = 11.3

     negative rho (up, down):  1.973E+00 0.000E+00

     total cpu time spent up to now is     3449.8 secs

     total energy              =   -7425.29296817 Ry
     Harris-Foulkes estimate   =   -7425.29643574 Ry
     estimated scf accuracy    <       0.01157789 Ry

     iteration # 11     ecut=    50.00 Ry     beta=0.70
     Davidson diagonalization with overlap
     ethr =  1.45E-06,  avg # of iterations =  4.7

     negative rho (up, down):  1.974E+00 0.000E+00

     total cpu time spent up to now is     3691.1 secs

     total energy              =   -7425.29295989 Ry
     Harris-Foulkes estimate   =   -7425.29450770 Ry
     estimated scf accuracy    <       0.00574926 Ry

     iteration # 12     ecut=    50.00 Ry     beta=0.70
     Davidson diagonalization with overlap
     ethr =  7.19E-07,  avg # of iterations =  3.0

     negative rho (up, down):  1.974E+00 0.000E+00

     total cpu time spent up to now is     3903.6 secs

     total energy              =   -7425.29229336 Ry
     Harris-Foulkes estimate   =   -7425.29345073 Ry
     estimated scf accuracy    <       0.00180500 Ry

     iteration # 13     ecut=    50.00 Ry     beta=0.70
     Davidson diagonalization with overlap
     ethr =  2.26E-07,  avg # of iterations =  5.0

     negative rho (up, down):  1.974E+00 0.000E+00

     total cpu time spent up to now is     4213.2 secs

     total energy              =   -7425.29195965 Ry
     Harris-Foulkes estimate   =   -7425.29365121 Ry
     estimated scf accuracy    <       0.00739775 Ry

     iteration # 14     ecut=    50.00 Ry     beta=0.70
     Davidson diagonalization with overlap
     ethr =  2.26E-07,  avg # of iterations =  3.0

     negative rho (up, down):  1.974E+00 0.000E+00

     total cpu time spent up to now is     4455.9 secs

     total energy              =   -7425.29267477 Ry
     Harris-Foulkes estimate   =   -7425.29292562 Ry
     estimated scf accuracy    <       0.00109442 Ry

     iteration # 15     ecut=    50.00 Ry     beta=0.70
     Davidson diagonalization with overlap
     ethr =  1.37E-07,  avg # of iterations =  2.0

     negative rho (up, down):  1.974E+00 0.000E+00

     total cpu time spent up to now is     4653.7 secs

     total energy              =   -7425.29273265 Ry
     Harris-Foulkes estimate   =   -7425.29288270 Ry
     estimated scf accuracy    <       0.00074874 Ry

     iteration # 16     ecut=    50.00 Ry     beta=0.70
     Davidson diagonalization with overlap
     ethr =  9.36E-08,  avg # of iterations =  1.0

     negative rho (up, down):  1.974E+00 0.000E+00

     total cpu time spent up to now is     4845.0 secs

     total energy              =   -7425.29276041 Ry
     Harris-Foulkes estimate   =   -7425.29290055 Ry
     estimated scf accuracy    <       0.00115665 Ry

     iteration # 17     ecut=    50.00 Ry     beta=0.70
     Davidson diagonalization with overlap
     ethr =  9.36E-08,  avg # of iterations =  2.0

     negative rho (up, down):  1.974E+00 0.000E+00

     total cpu time spent up to now is     5044.5 secs

     total energy              =   -7425.29282325 Ry
     Harris-Foulkes estimate   =   -7425.29283623 Ry
     estimated scf accuracy    <       0.00003787 Ry

     iteration # 18     ecut=    50.00 Ry     beta=0.70
     Davidson diagonalization with overlap
     ethr =  4.73E-09,  avg # of iterations =  2.5

     negative rho (up, down):  1.974E+00 0.000E+00

     total cpu time spent up to now is     5262.4 secs

     total energy              =   -7425.29282828 Ry
     Harris-Foulkes estimate   =   -7425.29283416 Ry
     estimated scf accuracy    <       0.00002676 Ry

     iteration # 19     ecut=    50.00 Ry     beta=0.70
     Davidson diagonalization with overlap
     ethr =  3.34E-09,  avg # of iterations =  2.0

     negative rho (up, down):  1.974E+00 0.000E+00

     total cpu time spent up to now is     5469.1 secs

     total energy              =   -7425.29283007 Ry
     Harris-Foulkes estimate   =   -7425.29283361 Ry
     estimated scf accuracy    <       0.00001598 Ry

     iteration # 20     ecut=    50.00 Ry     beta=0.70
     Davidson diagonalization with overlap
     ethr =  2.00E-09,  avg # of iterations =  2.0

     negative rho (up, down):  1.974E+00 0.000E+00

     total cpu time spent up to now is     5669.0 secs

     total energy              =   -7425.29283174 Ry
     Harris-Foulkes estimate   =   -7425.29283238 Ry
     estimated scf accuracy    <       0.00000221 Ry

     iteration # 21     ecut=    50.00 Ry     beta=0.70
     Davidson diagonalization with overlap
     ethr =  2.76E-10,  avg # of iterations =  2.0

     negative rho (up, down):  1.974E+00 0.000E+00

     total cpu time spent up to now is     5884.9 secs

     total energy              =   -7425.29283201 Ry
     Harris-Foulkes estimate   =   -7425.29283240 Ry
     estimated scf accuracy    <       0.00000169 Ry

     iteration # 22     ecut=    50.00 Ry     beta=0.70
     Davidson diagonalization with overlap
     ethr =  2.11E-10,  avg # of iterations =  3.0

     negative rho (up, down):  1.974E+00 0.000E+00

     total cpu time spent up to now is     6101.4 secs

     total energy              =   -7425.29283229 Ry
     Harris-Foulkes estimate   =   -7425.29283234 Ry
     estimated scf accuracy    <       0.00000037 Ry

     iteration # 23     ecut=    50.00 Ry     beta=0.70
     Davidson diagonalization with overlap
     ethr =  4.66E-11,  avg # of iterations =  3.0

     negative rho (up, down):  1.974E+00 0.000E+00

     total cpu time spent up to now is     6321.2 secs

     total energy              =   -7425.29283231 Ry
     Harris-Foulkes estimate   =   -7425.29283236 Ry
     estimated scf accuracy    <       0.00000012 Ry

     iteration # 24     ecut=    50.00 Ry     beta=0.70
     Davidson diagonalization with overlap
     ethr =  1.51E-11,  avg # of iterations =  3.0

     negative rho (up, down):  1.974E+00 0.000E+00

     total cpu time spent up to now is     6555.1 secs

     total energy              =   -7425.29283234 Ry
     Harris-Foulkes estimate   =   -7425.29283236 Ry
     estimated scf accuracy    <       0.00000022 Ry

     iteration # 25     ecut=    50.00 Ry     beta=0.70
     Davidson diagonalization with overlap
     ethr =  1.51E-11,  avg # of iterations =  2.0

     negative rho (up, down):  1.974E+00 0.000E+00

     total cpu time spent up to now is     6756.0 secs

     total energy              =   -7425.29283236 Ry
     Harris-Foulkes estimate   =   -7425.29283237 Ry
     estimated scf accuracy    <       0.00000011 Ry

     iteration # 26     ecut=    50.00 Ry     beta=0.70
     Davidson diagonalization with overlap
     ethr =  1.35E-11,  avg # of iterations =  2.0

     negative rho (up, down):  1.974E+00 0.000E+00

     total cpu time spent up to now is     6960.8 secs

     total energy              =   -7425.29283238 Ry
     Harris-Foulkes estimate   =   -7425.29283238 Ry
     estimated scf accuracy    <       0.00000007 Ry

     iteration # 27     ecut=    50.00 Ry     beta=0.70
     Davidson diagonalization with overlap
     ethr =  8.32E-12,  avg # of iterations =  1.5

     negative rho (up, down):  1.974E+00 0.000E+00

     total cpu time spent up to now is     7154.4 secs

     total energy              =   -7425.29283238 Ry
     Harris-Foulkes estimate   =   -7425.29283239 Ry
     estimated scf accuracy    <       0.00000004 Ry

     iteration # 28     ecut=    50.00 Ry     beta=0.70
     Davidson diagonalization with overlap
     ethr =  4.87E-12,  avg # of iterations =  2.0

     negative rho (up, down):  1.974E+00 0.000E+00

     total cpu time spent up to now is     7353.4 secs

     End of self-consistent calculation

          k = 0.2500 0.2500 0.0833 (167653 PWs)   bands (ev):

   -19.1978  -7.0227  -6.9287  -6.4004  -6.3995  -5.9704  -5.5625  -5.4685
    -5.4677  -5.2720  -5.2720  -5.1564  -5.1537  -5.0755  -5.0531  -4.9797
    -4.8949  -4.8909  -4.8525  -4.8517  -4.6916  -4.6749  -4.6733  -4.6729
    -4.6658  -4.6107  -4.6104  -4.5989  -4.5983  -4.5615  -4.5504  -4.5484
    -4.5070  -4.5065  -4.4733  -4.4720  -4.4210  -4.4196  -4.4101  -4.4082
    -4.4024  -4.3896  -4.3893  -4.3494  -4.3303  -4.3301  -4.3228  -4.3227
    -4.2914  -4.2425  -4.2260  -4.2255  -4.2245  -4.2214  -4.2141  -4.2085
    -4.2082  -4.2076  -4.1445  -4.1422  -4.0952  -4.0926  -4.0806  -4.0551
    -4.0542  -4.0364  -4.0317  -4.0308  -4.0269  -4.0243  -3.9753  -3.9753
    -3.9625  -3.9619  -3.8591  -3.8565  -3.8521  -3.8501  -3.8134  -3.8065
    -3.7890  -3.7608  -3.7601  -3.7320  -3.7307  -3.7108  -3.7092  -3.6966
    -3.6953  -3.6411  -3.6404  -3.6243  -3.6063  -3.5960  -3.5941  -3.5934
    -3.5924  -3.5662  -3.5649  -3.5315  -3.5289  -3.5076  -3.5060  -3.4740
    -3.4727  -3.4552  -3.4279  -3.4277  -3.3914  -3.3895  -3.3731  -3.3506
    -3.3460  -3.3434  -3.3317  -3.3303  -3.3265  -3.3135  -3.2896  -3.2767
    -3.2376  -3.2356  -3.2289  -3.2195  -3.2184  -3.2123  -3.1935  -3.1933
    -3.1723  -3.1711  -3.1709  -3.1446  -3.1445  -3.1369  -3.1345  -3.1321
    -3.0976  -3.0943  -3.0587  -3.0580  -3.0566  -3.0549  -3.0541  -2.9750
    -2.9652  -2.9615  -2.9604  -2.9599  -2.9587  -2.9542  -2.9536  -2.9534
    -2.9532  -2.9439  -2.9360  -2.9196  -2.9166  -2.9153  -2.9114  -2.9008
    -2.8971  -2.8583  -2.8574  -2.8572  -2.8527  -2.8525  -2.8348  -2.8344
    -2.8261  -2.8258  -2.8233  -2.7644  -2.7642  -2.7586  -2.7584  -2.7542
    -2.7513  -2.7248  -2.6661  -2.6652  -2.6646  -2.6623  -2.6513  -2.6494
    -2.6434  -2.6341  -2.6332  -2.5975  -2.5961  -2.5884  -2.5881  -2.5865
    -2.5861  -2.5475  -2.5469  -2.5374  -2.5370  -2.5353  -2.5346  -2.4918
    -2.4751  -2.4725  -2.4186  -2.4177  -2.4005  -2.3988  -2.3927  -2.3917
    -2.3449  -2.3431  -2.3204  -2.3055  -2.2912  -2.2893  -2.2880  -2.2670
    -2.2664  -2.2570  -2.2389  -2.2021  -2.2001  -2.1868  -2.1840  -2.1837
    -2.1751  -2.1736  -2.1612  -2.1581  -2.1569  -2.1538  -2.1494  -2.1477
    -2.1471  -2.1369  -2.1359  -2.1183  -2.1176  -2.1158  -2.1099  -2.1071
    -2.1061  -2.0836  -2.0824  -2.0710  -2.0697  -2.0638  -2.0629  -2.0256
    -1.9922  -1.9921  -1.9567  -1.9400  -1.9395  -1.9310  -1.9277  -1.9060
    -1.9047  -1.8930  -1.8896  -1.8878  -1.8874  -1.8868  -1.8838  -1.8523
    -1.8521  -1.8519  -1.8065  -1.8061  -1.7673  -1.7654  -1.7189  -1.7187
    -1.7059  -1.6840  -1.6790  -1.6758  -1.6609  -1.6587  -1.6422  -1.6400
    -1.6377  -1.6351  -1.6338  -1.6336  -1.6321  -1.6308  -1.6109  -1.6097
    -1.5979  -1.5827  -1.5648  -1.5646  -1.5393  -1.5369  -1.5336  -1.5333
    -1.5311  -1.5266  -1.5067  -1.5045  -1.4909  -1.4900  -1.4776  -1.4681
    -1.4545  -1.4534  -1.4240  -1.4230  -1.4152  -1.4142  -1.3801  -1.3786
    -1.3710  -1.3701  -1.3625  -1.3620  -1.3408  -1.3396  -1.3288  -1.3226
    -1.3210  -1.3109  -1.3089  -1.3071  -1.3069  -1.2933  -1.2849  -1.2821
    -1.2743  -1.2741  -1.2649  -1.2582  -1.2572  -1.2511  -1.2175  -1.2112
    -1.2047  -1.2039  -1.2017  -1.2005  -1.1909  -1.1626  -1.1449  -1.1441
    -1.1438  -1.1429  -1.1403  -1.1348  -1.1329  -1.1216  -1.1190  -1.0830
    -1.0825  -1.0757  -1.0750  -1.0530  -1.0525  -1.0429  -1.0137  -1.0054
    -0.9789  -0.9775  -0.9503  -0.9498  -0.9472  -0.9468  -0.9442  -0.9403
    -0.9358  -0.9357  -0.9316  -0.9307  -0.8991  -0.8989  -0.8809  -0.8775
    -0.8756  -0.8747  -0.8728  -0.8725  -0.8549  -0.5806  -0.5675  -0.5114
    -0.5091  -0.4734  -0.3122  -0.2477  -0.2471  -0.2134   0.0711   0.0728
     0.4028   0.4037   0.5003   0.5007   0.5417   0.5426   0.6854   0.6877
     0.8090   0.8115   0.9013   1.4969   1.5145   1.5152   1.5510   1.5610
     1.6074   1.6078   1.6852   1.6858   1.8919   1.8922   2.1280   2.2063
     2.2086   2.2236   2.6049   2.6064   2.6772   2.6783   2.6848   2.6859
     2.8365   2.8369   2.8903   2.9820   2.9837   3.2136   3.2146   3.3461
     3.3737   3.3739   3.6460   3.6473   3.7548   3.7772   3.7776   3.8564
     3.8641   3.9629   3.9655   4.1999   4.2024   4.2889   4.2934   4.4119
     4.4185   4.4329   4.4409   4.6027   5.2147   5.2492   5.3275   5.3483
     5.3505   5.5255   5.5262   5.5734   5.6292   5.6414   5.6478   5.6938
     5.6951   5.7026   5.7124   5.7408   5.9857   6.0092   6.0207   6.0293
     6.0377   6.0386   6.0439   6.0482   6.1078   6.1312   6.1676   6.1726

          k = 0.2500 0.2500-0.2500 (167588 PWs)   bands (ev):

   -19.1978  -7.0227  -6.9287  -6.4004  -6.3995  -5.9704  -5.5625  -5.4685
    -5.4677  -5.2720  -5.2720  -5.1564  -5.1537  -5.0755  -5.0531  -4.9797
    -4.8949  -4.8909  -4.8525  -4.8517  -4.6916  -4.6750  -4.6733  -4.6729
    -4.6658  -4.6107  -4.6104  -4.5989  -4.5983  -4.5615  -4.5504  -4.5484
    -4.5070  -4.5065  -4.4733  -4.4720  -4.4210  -4.4196  -4.4101  -4.4082
    -4.4024  -4.3896  -4.3893  -4.3494  -4.3303  -4.3301  -4.3228  -4.3227
    -4.2914  -4.2425  -4.2260  -4.2255  -4.2245  -4.2214  -4.2142  -4.2085
    -4.2082  -4.2076  -4.1445  -4.1422  -4.0952  -4.0926  -4.0806  -4.0551
    -4.0541  -4.0364  -4.0317  -4.0308  -4.0269  -4.0243  -3.9753  -3.9753
    -3.9625  -3.9619  -3.8591  -3.8565  -3.8521  -3.8501  -3.8134  -3.8065
    -3.7890  -3.7608  -3.7601  -3.7320  -3.7307  -3.7108  -3.7092  -3.6966
    -3.6953  -3.6411  -3.6404  -3.6243  -3.6063  -3.5960  -3.5941  -3.5934
    -3.5924  -3.5662  -3.5649  -3.5315  -3.5289  -3.5076  -3.5060  -3.4740
    -3.4727  -3.4552  -3.4279  -3.4277  -3.3914  -3.3895  -3.3731  -3.3506
    -3.3460  -3.3434  -3.3317  -3.3303  -3.3265  -3.3135  -3.2896  -3.2767
    -3.2376  -3.2356  -3.2289  -3.2195  -3.2184  -3.2123  -3.1935  -3.1933
    -3.1723  -3.1711  -3.1709  -3.1446  -3.1445  -3.1369  -3.1345  -3.1321
    -3.0976  -3.0943  -3.0587  -3.0580  -3.0566  -3.0549  -3.0541  -2.9750
    -2.9652  -2.9615  -2.9604  -2.9599  -2.9587  -2.9542  -2.9536  -2.9534
    -2.9532  -2.9439  -2.9360  -2.9197  -2.9166  -2.9153  -2.9114  -2.9008
    -2.8971  -2.8583  -2.8574  -2.8572  -2.8527  -2.8525  -2.8348  -2.8344
    -2.8261  -2.8258  -2.8233  -2.7644  -2.7642  -2.7586  -2.7584  -2.7542
    -2.7513  -2.7248  -2.6661  -2.6652  -2.6646  -2.6623  -2.6513  -2.6494
    -2.6434  -2.6341  -2.6332  -2.5975  -2.5961  -2.5884  -2.5881  -2.5865
    -2.5860  -2.5475  -2.5469  -2.5374  -2.5370  -2.5353  -2.5346  -2.4918
    -2.4751  -2.4725  -2.4185  -2.4177  -2.4006  -2.3988  -2.3927  -2.3917
    -2.3449  -2.3431  -2.3204  -2.3055  -2.2912  -2.2893  -2.2880  -2.2670
    -2.2664  -2.2570  -2.2389  -2.2021  -2.2001  -2.1868  -2.1840  -2.1837
    -2.1751  -2.1736  -2.1612  -2.1581  -2.1569  -2.1538  -2.1494  -2.1477
    -2.1471  -2.1369  -2.1359  -2.1183  -2.1176  -2.1158  -2.1099  -2.1071
    -2.1061  -2.0836  -2.0824  -2.0710  -2.0697  -2.0638  -2.0629  -2.0256
    -1.9922  -1.9921  -1.9567  -1.9400  -1.9395  -1.9310  -1.9277  -1.9060
    -1.9047  -1.8930  -1.8896  -1.8878  -1.8874  -1.8868  -1.8838  -1.8523
    -1.8521  -1.8519  -1.8065  -1.8061  -1.7674  -1.7654  -1.7189  -1.7187
    -1.7060  -1.6840  -1.6790  -1.6758  -1.6609  -1.6587  -1.6422  -1.6400
    -1.6377  -1.6351  -1.6338  -1.6336  -1.6321  -1.6308  -1.6109  -1.6097
    -1.5979  -1.5827  -1.5648  -1.5646  -1.5393  -1.5369  -1.5336  -1.5333
    -1.5311  -1.5266  -1.5067  -1.5045  -1.4909  -1.4900  -1.4776  -1.4681
    -1.4545  -1.4534  -1.4241  -1.4230  -1.4152  -1.4142  -1.3801  -1.3786
    -1.3710  -1.3701  -1.3625  -1.3620  -1.3408  -1.3396  -1.3288  -1.3226
    -1.3210  -1.3109  -1.3089  -1.3071  -1.3069  -1.2933  -1.2849  -1.2821
    -1.2743  -1.2741  -1.2648  -1.2582  -1.2572  -1.2511  -1.2175  -1.2112
    -1.2047  -1.2039  -1.2017  -1.2005  -1.1909  -1.1626  -1.1449  -1.1441
    -1.1438  -1.1429  -1.1403  -1.1348  -1.1329  -1.1216  -1.1190  -1.0830
    -1.0825  -1.0757  -1.0750  -1.0530  -1.0525  -1.0429  -1.0137  -1.0054
    -0.9789  -0.9774  -0.9503  -0.9498  -0.9472  -0.9468  -0.9442  -0.9403
    -0.9358  -0.9358  -0.9316  -0.9307  -0.8991  -0.8989  -0.8809  -0.8775
    -0.8756  -0.8747  -0.8727  -0.8725  -0.8549  -0.5806  -0.5675  -0.5114
    -0.5090  -0.4734  -0.3122  -0.2477  -0.2471  -0.2134   0.0711   0.0728
     0.4028   0.4037   0.5003   0.5007   0.5417   0.5426   0.6854   0.6877
     0.8090   0.8115   0.9013   1.4969   1.5145   1.5152   1.5510   1.5610
     1.6074   1.6078   1.6852   1.6858   1.8919   1.8922   2.1280   2.2063
     2.2086   2.2236   2.6049   2.6064   2.6772   2.6783   2.6848   2.6859
     2.8365   2.8369   2.8903   2.9820   2.9837   3.2136   3.2146   3.3460
     3.3737   3.3739   3.6460   3.6473   3.7548   3.7772   3.7776   3.8564
     3.8641   3.9629   3.9655   4.1999   4.2024   4.2889   4.2934   4.4119
     4.4185   4.4329   4.4409   4.6028   5.2120   5.2494   5.3109   5.3483
     5.3503   5.5254   5.5262   5.5742   5.6317   5.6430   5.6564   5.6903
     5.6944   5.6956   5.7405   5.7615   5.9856   6.0092   6.0213   6.0296
     6.0377   6.0386   6.0439   6.0482   6.1134   6.1307   6.1609   6.2588

          k =-0.2500-0.2500 0.0833 (167653 PWs)   bands (ev):

   -19.1978  -7.0227  -6.9287  -6.4004  -6.3995  -5.9704  -5.5625  -5.4685
    -5.4677  -5.2720  -5.2720  -5.1564  -5.1537  -5.0755  -5.0531  -4.9797
    -4.8949  -4.8909  -4.8525  -4.8517  -4.6916  -4.6749  -4.6733  -4.6729
    -4.6658  -4.6107  -4.6104  -4.5989  -4.5983  -4.5615  -4.5504  -4.5484
    -4.5070  -4.5065  -4.4733  -4.4720  -4.4210  -4.4196  -4.4101  -4.4082
    -4.4024  -4.3896  -4.3893  -4.3494  -4.3303  -4.3301  -4.3228  -4.3227
    -4.2914  -4.2425  -4.2260  -4.2255  -4.2245  -4.2214  -4.2141  -4.2085
    -4.2082  -4.2076  -4.1445  -4.1422  -4.0952  -4.0926  -4.0806  -4.0551
    -4.0542  -4.0364  -4.0317  -4.0308  -4.0269  -4.0243  -3.9753  -3.9753
    -3.9625  -3.9619  -3.8591  -3.8565  -3.8521  -3.8501  -3.8134  -3.8065
    -3.7890  -3.7608  -3.7601  -3.7320  -3.7307  -3.7108  -3.7092  -3.6966
    -3.6953  -3.6411  -3.6404  -3.6243  -3.6063  -3.5960  -3.5941  -3.5934
    -3.5924  -3.5662  -3.5649  -3.5315  -3.5289  -3.5076  -3.5060  -3.4740
    -3.4727  -3.4552  -3.4279  -3.4277  -3.3914  -3.3895  -3.3731  -3.3506
    -3.3460  -3.3434  -3.3317  -3.3303  -3.3265  -3.3135  -3.2896  -3.2767
    -3.2376  -3.2356  -3.2289  -3.2195  -3.2184  -3.2123  -3.1935  -3.1933
    -3.1723  -3.1711  -3.1709  -3.1446  -3.1445  -3.1369  -3.1345  -3.1321
    -3.0976  -3.0943  -3.0587  -3.0580  -3.0566  -3.0549  -3.0541  -2.9750
    -2.9652  -2.9615  -2.9604  -2.9599  -2.9587  -2.9542  -2.9536  -2.9534
    -2.9532  -2.9439  -2.9360  -2.9196  -2.9166  -2.9153  -2.9114  -2.9008
    -2.8971  -2.8583  -2.8574  -2.8572  -2.8527  -2.8525  -2.8348  -2.8344
    -2.8261  -2.8258  -2.8233  -2.7644  -2.7642  -2.7586  -2.7584  -2.7542
    -2.7513  -2.7248  -2.6661  -2.6652  -2.6646  -2.6623  -2.6513  -2.6494
    -2.6434  -2.6341  -2.6332  -2.5975  -2.5961  -2.5884  -2.5881  -2.5865
    -2.5861  -2.5475  -2.5469  -2.5374  -2.5370  -2.5353  -2.5346  -2.4918
    -2.4751  -2.4725  -2.4186  -2.4177  -2.4005  -2.3988  -2.3927  -2.3917
    -2.3449  -2.3431  -2.3204  -2.3055  -2.2912  -2.2893  -2.2880  -2.2670
    -2.2664  -2.2570  -2.2389  -2.2021  -2.2001  -2.1868  -2.1840  -2.1837
    -2.1751  -2.1736  -2.1612  -2.1581  -2.1569  -2.1538  -2.1494  -2.1477
    -2.1471  -2.1369  -2.1359  -2.1183  -2.1176  -2.1158  -2.1099  -2.1071
    -2.1061  -2.0836  -2.0824  -2.0710  -2.0697  -2.0638  -2.0629  -2.0256
    -1.9922  -1.9921  -1.9567  -1.9400  -1.9395  -1.9310  -1.9277  -1.9060
    -1.9047  -1.8930  -1.8896  -1.8878  -1.8874  -1.8868  -1.8838  -1.8523
    -1.8521  -1.8519  -1.8065  -1.8061  -1.7673  -1.7654  -1.7189  -1.7187
    -1.7059  -1.6840  -1.6790  -1.6758  -1.6609  -1.6587  -1.6422  -1.6400
    -1.6377  -1.6351  -1.6338  -1.6336  -1.6321  -1.6308  -1.6109  -1.6097
    -1.5979  -1.5827  -1.5648  -1.5646  -1.5393  -1.5369  -1.5336  -1.5333
    -1.5311  -1.5266  -1.5067  -1.5045  -1.4909  -1.4900  -1.4776  -1.4681
    -1.4545  -1.4534  -1.4240  -1.4230  -1.4152  -1.4142  -1.3801  -1.3786
    -1.3710  -1.3701  -1.3625  -1.3620  -1.3408  -1.3396  -1.3288  -1.3226
    -1.3210  -1.3109  -1.3089  -1.3071  -1.3069  -1.2933  -1.2849  -1.2821
    -1.2743  -1.2741  -1.2649  -1.2582  -1.2572  -1.2511  -1.2175  -1.2112
    -1.2047  -1.2039  -1.2017  -1.2005  -1.1909  -1.1626  -1.1449  -1.1441
    -1.1438  -1.1429  -1.1403  -1.1348  -1.1329  -1.1216  -1.1190  -1.0830
    -1.0825  -1.0757  -1.0750  -1.0530  -1.0525  -1.0429  -1.0137  -1.0054
    -0.9789  -0.9775  -0.9503  -0.9498  -0.9472  -0.9468  -0.9442  -0.9403
    -0.9358  -0.9357  -0.9316  -0.9307  -0.8991  -0.8989  -0.8809  -0.8775
    -0.8756  -0.8747  -0.8728  -0.8725  -0.8549  -0.5806  -0.5675  -0.5114
    -0.5091  -0.4734  -0.3122  -0.2477  -0.2471  -0.2134   0.0711   0.0728
     0.4028   0.4037   0.5003   0.5007   0.5417   0.5426   0.6854   0.6877
     0.8090   0.8115   0.9013   1.4969   1.5145   1.5152   1.5510   1.5610
     1.6074   1.6078   1.6852   1.6858   1.8919   1.8922   2.1280   2.2063
     2.2086   2.2236   2.6049   2.6064   2.6772   2.6783   2.6848   2.6859
     2.8365   2.8369   2.8903   2.9820   2.9837   3.2136   3.2146   3.3461
     3.3737   3.3739   3.6460   3.6473   3.7548   3.7772   3.7776   3.8564
     3.8641   3.9629   3.9655   4.1999   4.2024   4.2889   4.2934   4.4119
     4.4185   4.4329   4.4409   4.6027   5.2147   5.2492   5.3275   5.3483
     5.3505   5.5255   5.5262   5.5734   5.6292   5.6414   5.6478   5.6938
     5.6951   5.7027   5.7123   5.7408   5.9856   6.0092   6.0207   6.0293
     6.0377   6.0386   6.0439   6.0482   6.1078   6.1313   6.1677   6.1725

          k =-0.2500 0.2500-0.0833 (167653 PWs)   bands (ev):

   -19.1978  -7.0228  -6.9287  -6.4011  -6.3989  -5.9704  -5.5624  -5.4691
    -5.4671  -5.2721  -5.2719  -5.1575  -5.1528  -5.0755  -5.0529  -4.9797
    -4.8948  -4.8910  -4.8529  -4.8516  -4.6915  -4.6750  -4.6739  -4.6724
    -4.6658  -4.6107  -4.6104  -4.5993  -4.5977  -4.5615  -4.5510  -4.5477
    -4.5071  -4.5064  -4.4733  -4.4719  -4.4220  -4.4189  -4.4099  -4.4082
    -4.4024  -4.3897  -4.3892  -4.3490  -4.3306  -4.3298  -4.3231  -4.3225
    -4.2910  -4.2419  -4.2268  -4.2258  -4.2251  -4.2209  -4.2142  -4.2088
    -4.2081  -4.2075  -4.1458  -4.1414  -4.0953  -4.0919  -4.0804  -4.0557
    -4.0540  -4.0371  -4.0315  -4.0311  -4.0268  -4.0243  -3.9753  -3.9753
    -3.9629  -3.9614  -3.8592  -3.8558  -3.8529  -3.8494  -3.8133  -3.8064
    -3.7890  -3.7607  -3.7602  -3.7325  -3.7302  -3.7111  -3.7089  -3.6970
    -3.6946  -3.6414  -3.6401  -3.6239  -3.6064  -3.5959  -3.5945  -3.5930
    -3.5925  -3.5667  -3.5648  -3.5318  -3.5288  -3.5079  -3.5056  -3.4742
    -3.4723  -3.4554  -3.4279  -3.4273  -3.3909  -3.3891  -3.3732  -3.3512
    -3.3460  -3.3431  -3.3314  -3.3308  -3.3263  -3.3141  -3.2896  -3.2765
    -3.2376  -3.2355  -3.2289  -3.2192  -3.2186  -3.2127  -3.1935  -3.1930
    -3.1723  -3.1717  -3.1703  -3.1446  -3.1444  -3.1369  -3.1346  -3.1318
    -3.0976  -3.0946  -3.0589  -3.0575  -3.0571  -3.0550  -3.0540  -2.9750
    -2.9652  -2.9624  -2.9603  -2.9596  -2.9584  -2.9541  -2.9537  -2.9536
    -2.9532  -2.9439  -2.9360  -2.9197  -2.9166  -2.9150  -2.9119  -2.9008
    -2.8969  -2.8583  -2.8574  -2.8573  -2.8534  -2.8519  -2.8352  -2.8340
    -2.8262  -2.8256  -2.8233  -2.7646  -2.7641  -2.7586  -2.7586  -2.7541
    -2.7512  -2.7249  -2.6662  -2.6651  -2.6645  -2.6623  -2.6513  -2.6493
    -2.6431  -2.6345  -2.6329  -2.5980  -2.5951  -2.5890  -2.5885  -2.5859
    -2.5856  -2.5474  -2.5463  -2.5373  -2.5369  -2.5358  -2.5342  -2.4919
    -2.4755  -2.4725  -2.4190  -2.4174  -2.4008  -2.3985  -2.3928  -2.3916
    -2.3459  -2.3422  -2.3203  -2.3060  -2.2910  -2.2894  -2.2879  -2.2673
    -2.2662  -2.2570  -2.2389  -2.2043  -2.1994  -2.1872  -2.1835  -2.1834
    -2.1753  -2.1732  -2.1624  -2.1579  -2.1577  -2.1536  -2.1497  -2.1472
    -2.1464  -2.1373  -2.1352  -2.1186  -2.1174  -2.1160  -2.1099  -2.1074
    -2.1056  -2.0840  -2.0818  -2.0709  -2.0698  -2.0635  -2.0633  -2.0256
    -1.9927  -1.9913  -1.9567  -1.9405  -1.9392  -1.9314  -1.9270  -1.9060
    -1.9044  -1.8934  -1.8892  -1.8881  -1.8877  -1.8874  -1.8832  -1.8525
    -1.8522  -1.8516  -1.8067  -1.8057  -1.7681  -1.7646  -1.7188  -1.7185
    -1.7059  -1.6839  -1.6789  -1.6758  -1.6607  -1.6590  -1.6430  -1.6391
    -1.6375  -1.6348  -1.6342  -1.6334  -1.6322  -1.6312  -1.6113  -1.6093
    -1.5980  -1.5828  -1.5646  -1.5644  -1.5389  -1.5365  -1.5344  -1.5328
    -1.5289  -1.5277  -1.5075  -1.5045  -1.4905  -1.4897  -1.4777  -1.4681
    -1.4552  -1.4528  -1.4242  -1.4224  -1.4159  -1.4139  -1.3806  -1.3787
    -1.3712  -1.3697  -1.3627  -1.3622  -1.3413  -1.3393  -1.3288  -1.3226
    -1.3209  -1.3106  -1.3084  -1.3071  -1.3062  -1.2935  -1.2845  -1.2825
    -1.2746  -1.2743  -1.2640  -1.2613  -1.2581  -1.2508  -1.2207  -1.2095
    -1.2059  -1.2054  -1.2022  -1.2006  -1.1892  -1.1623  -1.1460  -1.1440
    -1.1438  -1.1424  -1.1389  -1.1348  -1.1273  -1.1219  -1.1185  -1.0837
    -1.0819  -1.0756  -1.0753  -1.0533  -1.0522  -1.0428  -1.0133  -1.0054
    -0.9793  -0.9769  -0.9504  -0.9501  -0.9471  -0.9466  -0.9442  -0.9404
    -0.9362  -0.9358  -0.9324  -0.9303  -0.8997  -0.8983  -0.8803  -0.8782
    -0.8763  -0.8742  -0.8733  -0.8712  -0.8548  -0.5807  -0.5675  -0.5114
    -0.5084  -0.4735  -0.3134  -0.2489  -0.2464  -0.2139   0.0714   0.0729
     0.4009   0.4055   0.4996   0.5012   0.5395   0.5438   0.6844   0.6889
     0.8091   0.8117   0.9015   1.4966   1.5144   1.5159   1.5534   1.5609
     1.6013   1.6131   1.6832   1.6876   1.8904   1.8936   2.1293   2.2039
     2.2115   2.2233   2.6010   2.6113   2.6774   2.6783   2.6837   2.6867
     2.8356   2.8377   2.8893   2.9762   2.9864   3.2095   3.2143   3.3462
     3.3719   3.3765   3.6420   3.6494   3.7608   3.7772   3.7783   3.8424
     3.8749   3.9598   3.9670   4.1981   4.2032   4.2894   4.2938   4.4146
     4.4161   4.4359   4.4463   4.6093   5.2104   5.2625   5.3126   5.3501
     5.3508   5.5197   5.5282   5.5681   5.6200   5.6428   5.6465   5.6859
     5.6939   5.6972   5.7287   5.7379   5.9793   6.0079   6.0178   6.0274
     6.0361   6.0404   6.0463   6.0482   6.1126   6.1391   6.1515   6.1849

          k = 0.2500-0.2500-0.0833 (167653 PWs)   bands (ev):

   -19.1978  -7.0228  -6.9287  -6.4011  -6.3989  -5.9704  -5.5624  -5.4691
    -5.4671  -5.2721  -5.2719  -5.1575  -5.1528  -5.0755  -5.0529  -4.9797
    -4.8948  -4.8910  -4.8529  -4.8516  -4.6915  -4.6750  -4.6739  -4.6724
    -4.6658  -4.6107  -4.6104  -4.5993  -4.5977  -4.5615  -4.5510  -4.5477
    -4.5071  -4.5064  -4.4733  -4.4719  -4.4220  -4.4189  -4.4099  -4.4082
    -4.4024  -4.3897  -4.3892  -4.3490  -4.3306  -4.3298  -4.3231  -4.3225
    -4.2910  -4.2419  -4.2268  -4.2258  -4.2251  -4.2209  -4.2142  -4.2088
    -4.2081  -4.2075  -4.1458  -4.1414  -4.0953  -4.0919  -4.0804  -4.0557
    -4.0540  -4.0371  -4.0315  -4.0311  -4.0268  -4.0243  -3.9753  -3.9753
    -3.9629  -3.9614  -3.8592  -3.8558  -3.8529  -3.8494  -3.8133  -3.8064
    -3.7890  -3.7607  -3.7602  -3.7325  -3.7302  -3.7111  -3.7089  -3.6970
    -3.6946  -3.6414  -3.6401  -3.6239  -3.6064  -3.5959  -3.5945  -3.5930
    -3.5925  -3.5667  -3.5648  -3.5318  -3.5288  -3.5079  -3.5056  -3.4742
    -3.4723  -3.4554  -3.4279  -3.4273  -3.3909  -3.3891  -3.3732  -3.3512
    -3.3460  -3.3431  -3.3314  -3.3308  -3.3263  -3.3141  -3.2896  -3.2765
    -3.2376  -3.2355  -3.2289  -3.2192  -3.2186  -3.2127  -3.1935  -3.1930
    -3.1723  -3.1717  -3.1703  -3.1446  -3.1444  -3.1369  -3.1346  -3.1318
    -3.0976  -3.0946  -3.0589  -3.0575  -3.0571  -3.0550  -3.0540  -2.9750
    -2.9652  -2.9624  -2.9603  -2.9596  -2.9584  -2.9541  -2.9537  -2.9536
    -2.9532  -2.9439  -2.9360  -2.9197  -2.9166  -2.9150  -2.9119  -2.9008
    -2.8969  -2.8583  -2.8574  -2.8573  -2.8534  -2.8519  -2.8352  -2.8340
    -2.8262  -2.8256  -2.8233  -2.7646  -2.7641  -2.7586  -2.7586  -2.7541
    -2.7512  -2.7249  -2.6662  -2.6651  -2.6645  -2.6623  -2.6513  -2.6493
    -2.6431  -2.6345  -2.6329  -2.5980  -2.5951  -2.5890  -2.5885  -2.5859
    -2.5856  -2.5474  -2.5463  -2.5373  -2.5369  -2.5358  -2.5342  -2.4919
    -2.4755  -2.4725  -2.4190  -2.4174  -2.4008  -2.3985  -2.3928  -2.3916
    -2.3459  -2.3422  -2.3203  -2.3060  -2.2910  -2.2894  -2.2879  -2.2673
    -2.2662  -2.2570  -2.2389  -2.2043  -2.1994  -2.1872  -2.1835  -2.1834
    -2.1753  -2.1732  -2.1624  -2.1579  -2.1577  -2.1536  -2.1497  -2.1472
    -2.1464  -2.1373  -2.1352  -2.1186  -2.1174  -2.1160  -2.1099  -2.1074
    -2.1056  -2.0840  -2.0818  -2.0709  -2.0698  -2.0635  -2.0633  -2.0256
    -1.9927  -1.9913  -1.9567  -1.9405  -1.9392  -1.9314  -1.9270  -1.9060
    -1.9044  -1.8934  -1.8892  -1.8881  -1.8877  -1.8874  -1.8832  -1.8525
    -1.8522  -1.8516  -1.8067  -1.8057  -1.7681  -1.7646  -1.7188  -1.7185
    -1.7059  -1.6839  -1.6789  -1.6758  -1.6607  -1.6590  -1.6430  -1.6391
    -1.6375  -1.6348  -1.6342  -1.6334  -1.6322  -1.6312  -1.6113  -1.6093
    -1.5980  -1.5828  -1.5646  -1.5644  -1.5389  -1.5365  -1.5344  -1.5328
    -1.5289  -1.5277  -1.5075  -1.5045  -1.4905  -1.4897  -1.4777  -1.4681
    -1.4552  -1.4528  -1.4242  -1.4224  -1.4159  -1.4139  -1.3806  -1.3787
    -1.3712  -1.3697  -1.3627  -1.3622  -1.3413  -1.3393  -1.3288  -1.3226
    -1.3209  -1.3106  -1.3084  -1.3071  -1.3062  -1.2935  -1.2845  -1.2825
    -1.2746  -1.2743  -1.2640  -1.2613  -1.2581  -1.2508  -1.2207  -1.2095
    -1.2059  -1.2054  -1.2022  -1.2006  -1.1892  -1.1623  -1.1460  -1.1440
    -1.1438  -1.1424  -1.1389  -1.1348  -1.1273  -1.1219  -1.1185  -1.0837
    -1.0819  -1.0756  -1.0753  -1.0533  -1.0522  -1.0428  -1.0133  -1.0054
    -0.9793  -0.9769  -0.9504  -0.9501  -0.9471  -0.9466  -0.9442  -0.9404
    -0.9362  -0.9358  -0.9324  -0.9303  -0.8997  -0.8983  -0.8803  -0.8782
    -0.8763  -0.8742  -0.8733  -0.8712  -0.8548  -0.5807  -0.5675  -0.5114
    -0.5084  -0.4735  -0.3134  -0.2489  -0.2464  -0.2139   0.0714   0.0729
     0.4009   0.4055   0.4996   0.5012   0.5395   0.5438   0.6844   0.6889
     0.8091   0.8117   0.9015   1.4966   1.5144   1.5159   1.5534   1.5609
     1.6013   1.6131   1.6832   1.6876   1.8904   1.8936   2.1293   2.2039
     2.2115   2.2233   2.6010   2.6113   2.6774   2.6783   2.6837   2.6867
     2.8356   2.8377   2.8893   2.9762   2.9864   3.2095   3.2143   3.3462
     3.3719   3.3765   3.6420   3.6494   3.7608   3.7772   3.7783   3.8424
     3.8749   3.9598   3.9670   4.1981   4.2032   4.2894   4.2938   4.4146
     4.4161   4.4359   4.4463   4.6093   5.2104   5.2625   5.3126   5.3501
     5.3508   5.5197   5.5282   5.5681   5.6200   5.6428   5.6465   5.6859
     5.6938   5.6971   5.7287   5.7379   5.9793   6.0079   6.0178   6.0274
     6.0361   6.0404   6.0463   6.0482   6.1126   6.1391   6.1515   6.1849

          k =-0.2500 0.2500 0.2500 (167588 PWs)   bands (ev):

   -19.1978  -7.0228  -6.9287  -6.4011  -6.3989  -5.9704  -5.5624  -5.4691
    -5.4671  -5.2721  -5.2719  -5.1575  -5.1528  -5.0755  -5.0530  -4.9797
    -4.8948  -4.8910  -4.8529  -4.8516  -4.6915  -4.6750  -4.6738  -4.6724
    -4.6658  -4.6107  -4.6104  -4.5993  -4.5977  -4.5615  -4.5510  -4.5477
    -4.5071  -4.5064  -4.4733  -4.4719  -4.4220  -4.4189  -4.4099  -4.4082
    -4.4024  -4.3897  -4.3892  -4.3490  -4.3306  -4.3298  -4.3231  -4.3225
    -4.2911  -4.2419  -4.2268  -4.2258  -4.2251  -4.2209  -4.2142  -4.2088
    -4.2082  -4.2075  -4.1458  -4.1414  -4.0953  -4.0919  -4.0805  -4.0557
    -4.0540  -4.0371  -4.0315  -4.0311  -4.0268  -4.0243  -3.9753  -3.9753
    -3.9629  -3.9614  -3.8592  -3.8558  -3.8529  -3.8494  -3.8133  -3.8064
    -3.7890  -3.7607  -3.7602  -3.7325  -3.7302  -3.7111  -3.7089  -3.6970
    -3.6946  -3.6414  -3.6401  -3.6239  -3.6064  -3.5959  -3.5945  -3.5930
    -3.5925  -3.5667  -3.5648  -3.5318  -3.5288  -3.5079  -3.5056  -3.4742
    -3.4723  -3.4554  -3.4279  -3.4273  -3.3909  -3.3891  -3.3732  -3.3512
    -3.3460  -3.3431  -3.3314  -3.3308  -3.3263  -3.3141  -3.2896  -3.2766
    -3.2376  -3.2355  -3.2289  -3.2192  -3.2186  -3.2127  -3.1935  -3.1930
    -3.1723  -3.1717  -3.1703  -3.1445  -3.1444  -3.1369  -3.1346  -3.1318
    -3.0976  -3.0946  -3.0589  -3.0575  -3.0571  -3.0550  -3.0540  -2.9750
    -2.9652  -2.9624  -2.9603  -2.9596  -2.9584  -2.9541  -2.9537  -2.9536
    -2.9532  -2.9439  -2.9360  -2.9197  -2.9166  -2.9150  -2.9119  -2.9008
    -2.8969  -2.8583  -2.8574  -2.8573  -2.8534  -2.8519  -2.8352  -2.8340
    -2.8262  -2.8256  -2.8233  -2.7646  -2.7641  -2.7586  -2.7586  -2.7541
    -2.7512  -2.7249  -2.6662  -2.6651  -2.6645  -2.6623  -2.6513  -2.6493
    -2.6431  -2.6345  -2.6329  -2.5980  -2.5950  -2.5890  -2.5885  -2.5859
    -2.5856  -2.5475  -2.5463  -2.5373  -2.5369  -2.5358  -2.5342  -2.4919
    -2.4755  -2.4725  -2.4190  -2.4174  -2.4008  -2.3985  -2.3928  -2.3916
    -2.3459  -2.3422  -2.3203  -2.3060  -2.2910  -2.2894  -2.2879  -2.2673
    -2.2662  -2.2570  -2.2390  -2.2043  -2.1994  -2.1872  -2.1835  -2.1834
    -2.1753  -2.1732  -2.1624  -2.1579  -2.1577  -2.1536  -2.1497  -2.1472
    -2.1464  -2.1373  -2.1352  -2.1186  -2.1174  -2.1160  -2.1099  -2.1074
    -2.1056  -2.0840  -2.0818  -2.0709  -2.0698  -2.0635  -2.0633  -2.0256
    -1.9927  -1.9913  -1.9567  -1.9405  -1.9392  -1.9314  -1.9270  -1.9060
    -1.9044  -1.8934  -1.8892  -1.8881  -1.8877  -1.8874  -1.8832  -1.8525
    -1.8522  -1.8516  -1.8067  -1.8057  -1.7681  -1.7646  -1.7188  -1.7185
    -1.7059  -1.6839  -1.6789  -1.6758  -1.6607  -1.6590  -1.6430  -1.6391
    -1.6375  -1.6348  -1.6342  -1.6334  -1.6322  -1.6312  -1.6113  -1.6093
    -1.5980  -1.5828  -1.5646  -1.5644  -1.5389  -1.5365  -1.5344  -1.5328
    -1.5289  -1.5277  -1.5075  -1.5045  -1.4905  -1.4897  -1.4777  -1.4681
    -1.4552  -1.4528  -1.4242  -1.4224  -1.4159  -1.4139  -1.3806  -1.3787
    -1.3712  -1.3697  -1.3627  -1.3622  -1.3413  -1.3393  -1.3287  -1.3226
    -1.3209  -1.3106  -1.3084  -1.3071  -1.3062  -1.2935  -1.2845  -1.2825
    -1.2746  -1.2743  -1.2640  -1.2613  -1.2581  -1.2508  -1.2207  -1.2095
    -1.2059  -1.2054  -1.2022  -1.2006  -1.1892  -1.1623  -1.1460  -1.1440
    -1.1438  -1.1424  -1.1389  -1.1348  -1.1273  -1.1219  -1.1185  -1.0837
    -1.0819  -1.0756  -1.0753  -1.0533  -1.0522  -1.0428  -1.0133  -1.0054
    -0.9793  -0.9769  -0.9504  -0.9501  -0.9471  -0.9466  -0.9442  -0.9404
    -0.9363  -0.9358  -0.9324  -0.9303  -0.8997  -0.8983  -0.8803  -0.8782
    -0.8763  -0.8742  -0.8733  -0.8712  -0.8548  -0.5807  -0.5675  -0.5114
    -0.5083  -0.4735  -0.3134  -0.2489  -0.2464  -0.2139   0.0714   0.0729
     0.4009   0.4055   0.4996   0.5012   0.5395   0.5438   0.6844   0.6889
     0.8091   0.8118   0.9015   1.4966   1.5144   1.5159   1.5534   1.5609
     1.6013   1.6131   1.6832   1.6876   1.8904   1.8936   2.1293   2.2039
     2.2115   2.2233   2.6010   2.6113   2.6774   2.6783   2.6837   2.6867
     2.8356   2.8377   2.8894   2.9762   2.9864   3.2095   3.2143   3.3462
     3.3719   3.3765   3.6420   3.6494   3.7607   3.7772   3.7783   3.8424
     3.8749   3.9598   3.9670   4.1980   4.2032   4.2894   4.2938   4.4146
     4.4161   4.4359   4.4463   4.6094   5.2082   5.2624   5.3004   5.3457
     5.3508   5.5197   5.5281   5.5672   5.6247   5.6429   5.6481   5.6860
     5.6966   5.7110   5.7370   5.7581   5.9810   6.0081   6.0181   6.0275
     6.0363   6.0404   6.0463   6.0482   6.1127   6.1415   6.1605   6.2402

     the Fermi energy is     0.7604 ev

!    total energy              =   -7425.29283239 Ry
     Harris-Foulkes estimate   =   -7425.29283238 Ry
     estimated scf accuracy    <          8.7E-09 Ry

     The total energy is the sum of the following terms:

     one-electron contribution =  -48679.27776194 Ry
     hartree contribution      =   24887.47082294 Ry
     xc contribution           =   -3604.21565759 Ry
     ewald contribution        =   19970.73248630 Ry
     smearing contrib. (-TS)   =      -0.00272211 Ry

     convergence has been achieved in  28 iterations

     Writing output data file 6947594.save

     init_run     :     96.67s CPU    103.83s WALL (       1 calls)
     electrons    :   6468.52s CPU   7249.18s WALL (       1 calls)

     Called by init_run:
     wfcinit      :     72.23s CPU     78.50s WALL (       1 calls)
     potinit      :      5.82s CPU      6.24s WALL (       1 calls)

     Called by electrons:
     c_bands      :   5258.72s CPU   5957.82s WALL (      29 calls)
     sum_band     :    784.16s CPU    849.05s WALL (      29 calls)
     v_of_rho     :     98.61s CPU    109.63s WALL (      29 calls)
     newd         :    335.21s CPU    339.72s WALL (      29 calls)
     mix_rho      :      2.53s CPU      2.94s WALL (      29 calls)
     vdW_energy   :     10.19s CPU     11.29s WALL (      29 calls)
     vdW_ffts     :     48.04s CPU     53.31s WALL (      58 calls)
     vdW_v        :     12.31s CPU     13.17s WALL (      29 calls)

     Called by c_bands:
     init_us_2    :     13.94s CPU     14.34s WALL (     354 calls)
     cegterg      :   5192.16s CPU   5888.49s WALL (     174 calls)

     Called by *egterg:
     h_psi        :   2213.40s CPU   2516.27s WALL (     848 calls)
     s_psi        :    361.96s CPU    375.61s WALL (     848 calls)
     g_psi        :      4.56s CPU      4.59s WALL (     668 calls)
     cdiaghg      :   1458.90s CPU   1463.87s WALL (     836 calls)

     Called by h_psi:
     add_vuspsi   :    363.08s CPU    379.39s WALL (     848 calls)

     General routines
     calbec       :    539.76s CPU    542.01s WALL (    1022 calls)
     fft          :    108.01s CPU    117.50s WALL (    1914 calls)
     ffts         :      1.18s CPU      1.45s WALL (      58 calls)
     fftw         :   1634.24s CPU   1947.88s WALL (  464192 calls)
     interpolate  :      3.54s CPU      4.18s WALL (      58 calls)
     davcio       :      0.00s CPU      0.12s WALL (       6 calls)

     Parallel routines
     fft_scatter  :   1185.90s CPU   1427.92s WALL (  466164 calls)

     PWSCF        :     1h49m CPU        2h 3m WALL


   This run was terminated on:   5:38:32  25Jun2015            

=------------------------------------------------------------------------------=
   JOB DONE.
=------------------------------------------------------------------------------=
