Setting SGE environment for SCC

     Program PWSCF v.5.1.2 starts on 23Jun2015 at 19: 7:15 

     This program is part of the open-source Quantum ESPRESSO suite
     for quantum simulation of materials; please cite
         "P. Giannozzi et al., J. Phys.:Condens. Matter 21 395502 (2009);
          URL http://www.quantum-espresso.org", 
     in publications or presentations arising from this work. More details at
     http://www.quantum-espresso.org/quote

     Parallel version (MPI), running on    32 processors
     R & G space division:  proc/nbgrp/npool/nimage =      32
     Reading input from top.O1.Au62.d.3.0.phi.0.psi.90.in
Warning: card &IONS ignored
Warning: card / ignored
Warning: card &CELL ignored
Warning: card / ignored

     Current dimensions of program PWSCF are:
     Max number of different atomic species (ntypx) = 10
     Max number of k-points (npk) =  40000
     Max angular momentum in pseudopotentials (lmaxx) =  3

     IMPORTANT: XC functional enforced from input :
     Exchange-correlation      = VDW-DF ( 1  4  4  0 1 0)
     Any further DFT definition will be discarded
     Please, verify this is what you really want


     Subspace diagonalization in iterative solution of the eigenvalue problem:
     a serial algorithm will be used


     Parallelization info
     --------------------
     sticks:   dense  smooth     PW     G-vecs:    dense   smooth      PW
     Min         578     289     74               118518    41891    5486
     Max         579     290     75               118533    41932    5497
     Sum       18505    9265   2385              3792731  1341081  175711


     Title: 
     top.O1.Au62.d.3.0.phi.0.psi.90                                             


     bravais-lattice index     =            8
     lattice parameter (alat)  =      24.1233  a.u.
     unit-cell volume          =   28076.2361 (a.u.)^3
     number of atoms/cell      =           75
     number of atomic types    =            3
     number of electrons       =       800.00
     number of Kohn-Sham states=          480
     kinetic-energy cutoff     =      50.0000  Ry
     charge density cutoff     =     400.0000  Ry
     convergence threshold     =      1.0E-08
     mixing beta               =       0.7000
     number of iterations used =            8  plain     mixing
     Exchange-correlation      = VDW-DF ( 1  4  4  0 1 0)

     celldm(1)=  24.123277  celldm(2)=   1.000000  celldm(3)=   2.000000
     celldm(4)=   0.000000  celldm(5)=   0.000000  celldm(6)=   0.000000

     crystal axes: (cart. coord. in units of alat)
               a(1) = (   1.000000   0.000000   0.000000 )  
               a(2) = (   0.000000   1.000000   0.000000 )  
               a(3) = (   0.000000   0.000000   2.000000 )  

     reciprocal axes: (cart. coord. in units 2 pi/alat)
               b(1) = (  1.000000  0.000000  0.000000 )  
               b(2) = (  0.000000  1.000000  0.000000 )  
               b(3) = (  0.000000  0.000000  0.500000 )  


     PseudoPot. # 1 for Au read from file:
     /home/scc/andrejb/qe/pseudo/Au.pbe-nd-van.UPF
     MD5 check sum: 458681b50f36d87ef23c61b04bba420a
     Pseudo is Ultrasoft + core correction, Zval = 11.0
     Generated by new atomic code, or converted to UPF format
     Using radial grid of  985 points,  3 beta functions with: 
                l(1) =   1
                l(2) =   2
                l(3) =   2
     Q(r) pseudized with  8 coefficients,  rinner =    1.100   1.100   1.100
                                                       1.100   1.100

     PseudoPot. # 2 for H  read from file:
     /home/scc/andrejb/qe/pseudo/H.pbe-van_ak.UPF
     MD5 check sum: 403db7282739603aa925980fa9b8608d
     Pseudo is Ultrasoft, Zval =  1.0
     Generated by new atomic code, or converted to UPF format
     Using radial grid of  615 points,  1 beta functions with: 
                l(1) =   0
     Q(r) pseudized with  8 coefficients,  rinner =    0.800

     PseudoPot. # 3 for O  read from file:
     /home/scc/andrejb/qe/pseudo/O.pbe-van_ak.UPF
     MD5 check sum: 4b8c549914a63cae506c6ff22b5af4fe
     Pseudo is Ultrasoft, Zval =  6.0
     Generated by new atomic code, or converted to UPF format
     Using radial grid of  737 points,  4 beta functions with: 
                l(1) =   0
                l(2) =   0
                l(3) =   1
                l(4) =   1
     Q(r) pseudized with  8 coefficients,  rinner =    0.800   0.800   0.800


     vdW kernel table read from file vdW_kernel_table
     MD5 check sum: 48e77a2e26edf626eeb0eaa751ad5cac

     atomic species   valence    mass     pseudopotential
        Au            11.00   196.96657     Au( 1.00)
        H              1.00     1.01000     H ( 1.00)
        O              6.00    16.00000     O ( 1.00)

     No symmetry found



   Cartesian axes

     site n.     atom                  positions (alat units)
         1           O   tau(   1) = (   0.4998324   0.3332216   0.7343272  )
         2           H   tau(   2) = (   0.4527548   0.2877277   0.6951557  )
         3           H   tau(   3) = (   0.5454827   0.2853639   0.7723288  )
         4           Au  tau(   4) = (   0.0000000   0.0000000   0.0000000  )
         5           Au  tau(   5) = (   0.3332217   0.0000000   0.0000000  )
         6           Au  tau(   6) = (   0.6664435   0.0000000   0.0000000  )
         7           Au  tau(   7) = (   0.1666109   0.1666109   0.0000000  )
         8           Au  tau(   8) = (   0.4998326   0.1666109   0.0000000  )
         9           Au  tau(   9) = (   0.8330542   0.1666109   0.0000000  )
        10           Au  tau(  10) = (   0.0000000   0.3332217   0.0000000  )
        11           Au  tau(  11) = (   0.3332217   0.3332217   0.0000000  )
        12           Au  tau(  12) = (   0.6664435   0.3332217   0.0000000  )
        13           Au  tau(  13) = (   0.1666109   0.4998326   0.0000000  )
        14           Au  tau(  14) = (   0.4998326   0.4998326   0.0000000  )
        15           Au  tau(  15) = (   0.8330542   0.4998326   0.0000000  )
        16           Au  tau(  16) = (   0.0000000   0.6664435   0.0000000  )
        17           Au  tau(  17) = (   0.3332217   0.6664435   0.0000000  )
        18           Au  tau(  18) = (   0.6664435   0.6664435   0.0000000  )
        19           Au  tau(  19) = (   0.1666109   0.8330542   0.0000000  )
        20           Au  tau(  20) = (   0.4998326   0.8330542   0.0000000  )
        21           Au  tau(  21) = (   0.8330542   0.8330542   0.0000000  )
        22           Au  tau(  22) = (   0.1666109   0.0000000   0.1666109  )
        23           Au  tau(  23) = (   0.4998326   0.0000000   0.1666109  )
        24           Au  tau(  24) = (   0.8330542   0.0000000   0.1666109  )
        25           Au  tau(  25) = (   0.0000000   0.1666109   0.1666109  )
        26           Au  tau(  26) = (   0.3332217   0.1666109   0.1666109  )
        27           Au  tau(  27) = (   0.6664435   0.1666109   0.1666109  )
        28           Au  tau(  28) = (   0.1666109   0.3332217   0.1666109  )
        29           Au  tau(  29) = (   0.4998326   0.3332217   0.1666109  )
        30           Au  tau(  30) = (   0.8330542   0.3332217   0.1666109  )
        31           Au  tau(  31) = (   0.0000000   0.4998326   0.1666109  )
        32           Au  tau(  32) = (   0.3332217   0.4998326   0.1666109  )
        33           Au  tau(  33) = (   0.6664435   0.4998326   0.1666109  )
        34           Au  tau(  34) = (   0.1666109   0.6664435   0.1666109  )
        35           Au  tau(  35) = (   0.4998326   0.6664435   0.1666109  )
        36           Au  tau(  36) = (   0.8330542   0.6664435   0.1666109  )
        37           Au  tau(  37) = (   0.0000000   0.8330542   0.1666109  )
        38           Au  tau(  38) = (   0.3332217   0.8330542   0.1666109  )
        39           Au  tau(  39) = (   0.6664435   0.8330542   0.1666109  )
        40           Au  tau(  40) = (  -0.0000182  -0.0000182   0.3335478  )
        41           Au  tau(  41) = (   0.3332215  -0.0000181   0.3335472  )
        42           Au  tau(  42) = (   0.6664447  -0.0000183   0.3335481  )
        43           Au  tau(  43) = (  -0.0000181   0.3332215   0.3335472  )
        44           Au  tau(  44) = (   0.3332215   0.3332215   0.3335468  )
        45           Au  tau(  45) = (   0.6664445   0.3332215   0.3335478  )
        46           Au  tau(  46) = (  -0.0000183   0.6664447   0.3335481  )
        47           Au  tau(  47) = (   0.3332215   0.6664445   0.3335478  )
        48           Au  tau(  48) = (   0.6664446   0.6664446   0.3335486  )
        49           Au  tau(  49) = (   0.1666097   0.1666097   0.3335483  )
        50           Au  tau(  50) = (   0.4998320   0.1666098   0.3335477  )
        51           Au  tau(  51) = (   0.8330732   0.1666096   0.3335481  )
        52           Au  tau(  52) = (   0.1666098   0.4998320   0.3335477  )
        53           Au  tau(  53) = (   0.4998321   0.4998321   0.3335470  )
        54           Au  tau(  54) = (   0.8330730   0.4998322   0.3335474  )
        55           Au  tau(  55) = (   0.1666096   0.8330732   0.3335481  )
        56           Au  tau(  56) = (   0.4998322   0.8330730   0.3335474  )
        57           Au  tau(  57) = (   0.8330731   0.8330731   0.3335478  )
        58           Au  tau(  58) = (   0.1666104  -0.0000111   0.4993095  )
        59           Au  tau(  59) = (   0.4998323  -0.0000112   0.4993099  )
        60           Au  tau(  60) = (   0.8330661  -0.0000111   0.4993009  )
        61           Au  tau(  61) = (  -0.0000111   0.1666104   0.4993095  )
        62           Au  tau(  62) = (   0.3332214   0.1666106   0.4993185  )
        63           Au  tau(  63) = (   0.6664437   0.1666106   0.4993187  )
        64           Au  tau(  64) = (   0.1666106   0.3332214   0.4993185  )
        65           Au  tau(  65) = (   0.4998324   0.3332216   0.4993185  )
        66           Au  tau(  66) = (   0.8330659   0.3332215   0.4993103  )
        67           Au  tau(  67) = (  -0.0000112   0.4998323   0.4993099  )
        68           Au  tau(  68) = (   0.3332216   0.4998324   0.4993185  )
        69           Au  tau(  69) = (   0.6664436   0.4998325   0.4993187  )
        70           Au  tau(  70) = (   0.1666106   0.6664437   0.4993187  )
        71           Au  tau(  71) = (   0.4998325   0.6664436   0.4993187  )
        72           Au  tau(  72) = (   0.8330658   0.6664438   0.4993102  )
        73           Au  tau(  73) = (  -0.0000111   0.8330661   0.4993009  )
        74           Au  tau(  74) = (   0.3332215   0.8330659   0.4993103  )
        75           Au  tau(  75) = (   0.6664438   0.8330658   0.4993102  )

     number of k points=     6  Marzari-Vanderbilt smearing, width (Ry)=  0.0200
                       cart. coord. in units 2pi/alat
        k(    1) = (   0.2500000   0.2500000   0.0833333), wk =   0.3333333
        k(    2) = (   0.2500000   0.2500000  -0.2500000), wk =   0.3333333
        k(    3) = (  -0.2500000  -0.2500000   0.0833333), wk =   0.3333333
        k(    4) = (  -0.2500000   0.2500000  -0.0833333), wk =   0.3333333
        k(    5) = (   0.2500000  -0.2500000  -0.0833333), wk =   0.3333333
        k(    6) = (  -0.2500000   0.2500000   0.2500000), wk =   0.3333333

     Dense  grid:  3792731 G-vectors     FFT dimensions: ( 160, 160, 320)

     Smooth grid:  1341081 G-vectors     FFT dimensions: ( 120, 120, 225)

     Largest allocated arrays     est. size (Mb)     dimensions
        Kohn-Sham Wavefunctions        38.58 Mb     (    5267,  480)
        NL pseudopotentials            76.03 Mb     (    5267,  946)
        Each V/rho on FFT grid          3.91 Mb     (  256000)
        Each G-vector array             0.90 Mb     (  118520)
        G-vector shells                 0.08 Mb     (   10286)
     Largest temporary arrays     est. size (Mb)     dimensions
        Auxiliary wavefunctions       154.31 Mb     (    5267, 1920)
        Each subspace H/S matrix       56.25 Mb     (    1920, 1920)
        Each <psi_i|beta_j> matrix      6.93 Mb     (     946,  480)
        Arrays for rho mixing          31.25 Mb     (  256000,    8)

     Initial potential from superposition of free atoms
     Check: negative starting charge=   -1.945168

     starting charge  799.16392, renormalised to  800.00000

     negative rho (up, down):  1.947E+00 0.000E+00


     ************************************************************************
     *
     * You are using vdW-DF for exchange-correlation in this calculation.
     * Please cite the following three references that made this development
     * possible:
     *
     *   M. Dion, H. Rydberg, E. Schroder, D. C. Langreth, and
     *   B. I. Lundqvist, Phys. Rev. Lett. 92, 246401 (2004).
     *
     *   T. Thonhauser, V. R. Cooper, S. Li, A. Puzder, P. Hyldgaard, and
     *   D. C. Langreth, Phys. Rev. B 76, 125112 (2007).
     *
     *   G. Roman-Perez and J. M. Soler, Phys. Rev. Lett. 103, 096102 (2009).
     *
     *
     * If you are using vdW-DF2, please also cite:
     *
     *   K. Lee, E. D. Murray, L. Kong, B. I. Lundqvist, and
     *   D. C. Langreth, Phys. Rev. B 82, 081101(R) (2010).
     *
     *
     * If you are calculating the stress with vdW-DF, please also cite:
     *
     *   R. Sabatini, E. Kucukbenli, B. Kolb, T. Thonhauser, and
     *   S. de Gironcoli, J. Phys.: Condens. Matter 24, 424209 (2012).
     *
     ************************************************************************

     Carrying out vdW-DF run using the following parameters:

     Nqs =      20    Nr_points =    1024   r_max =   100.000
     q_mesh =
               0.00001000     0.04494208     0.09755937     0.15916263
               0.23128650     0.31572767     0.41458969     0.53033537
               0.66584808     0.82450364     1.01025438     1.22772762
               1.48234092     1.78043706     2.12944203     2.53805004
               3.01644009     3.57652955     4.23227104     5.00000000

     Gradients computed in reciprocal space

     ************************************************************************


     Starting wfc are  654 randomized atomic wfcs

     total cpu time spent up to now is      148.0 secs

     Self-consistent Calculation

     iteration #  1     ecut=    50.00 Ry     beta=0.70
     Davidson diagonalization with overlap
     ethr =  1.00E-02,  avg # of iterations =  3.0

     Threshold (ethr) on eigenvalues was too large:
     Diagonalizing with lowered threshold

     Davidson diagonalization with overlap
     ethr =  4.23E-04,  avg # of iterations =  2.0

     negative rho (up, down):  1.947E+00 0.000E+00

     total cpu time spent up to now is      641.6 secs

     total energy              =   -7423.02949966 Ry
     Harris-Foulkes estimate   =   -7426.07303995 Ry
     estimated scf accuracy    <       3.76023661 Ry

     iteration #  2     ecut=    50.00 Ry     beta=0.70
     Davidson diagonalization with overlap
     ethr =  4.70E-04,  avg # of iterations = 11.3

     negative rho (up, down):  1.942E+00 0.000E+00

     total cpu time spent up to now is     1443.3 secs

     total energy              =   -7415.05585652 Ry
     Harris-Foulkes estimate   =   -7432.66784839 Ry
     estimated scf accuracy    <      92.04103249 Ry

     iteration #  3     ecut=    50.00 Ry     beta=0.70
     Davidson diagonalization with overlap
     ethr =  4.70E-04,  avg # of iterations =  6.0

     negative rho (up, down):  1.953E+00 0.000E+00

     total cpu time spent up to now is     1965.9 secs

     total energy              =   -7424.26450824 Ry
     Harris-Foulkes estimate   =   -7425.86801632 Ry
     estimated scf accuracy    <       6.39273038 Ry

     iteration #  4     ecut=    50.00 Ry     beta=0.70
     Davidson diagonalization with overlap
     ethr =  4.70E-04,  avg # of iterations =  6.2

     negative rho (up, down):  1.956E+00 0.000E+00

     total cpu time spent up to now is     2274.5 secs

     total energy              =   -7424.76147337 Ry
     Harris-Foulkes estimate   =   -7425.73337165 Ry
     estimated scf accuracy    <       6.50719593 Ry

     iteration #  5     ecut=    50.00 Ry     beta=0.70
     Davidson diagonalization with overlap
     ethr =  4.70E-04,  avg # of iterations =  5.8

     negative rho (up, down):  1.964E+00 0.000E+00

     total cpu time spent up to now is     2584.7 secs

     total energy              =   -7425.17952872 Ry
     Harris-Foulkes estimate   =   -7425.47542199 Ry
     estimated scf accuracy    <       1.93733903 Ry

     iteration #  6     ecut=    50.00 Ry     beta=0.70
     Davidson diagonalization with overlap
     ethr =  2.42E-04,  avg # of iterations =  3.2

     negative rho (up, down):  1.967E+00 0.000E+00

     total cpu time spent up to now is     2827.2 secs

     total energy              =   -7425.27598569 Ry
     Harris-Foulkes estimate   =   -7425.32552277 Ry
     estimated scf accuracy    <       0.16535542 Ry

     iteration #  7     ecut=    50.00 Ry     beta=0.70
     Davidson diagonalization with overlap
     ethr =  2.07E-05,  avg # of iterations =  9.3

     negative rho (up, down):  1.970E+00 0.000E+00

     total cpu time spent up to now is     3184.7 secs

     total energy              =   -7425.27960658 Ry
     Harris-Foulkes estimate   =   -7425.32077295 Ry
     estimated scf accuracy    <       0.20583996 Ry

     iteration #  8     ecut=    50.00 Ry     beta=0.70
     Davidson diagonalization with overlap
     ethr =  2.07E-05,  avg # of iterations =  4.5

     negative rho (up, down):  1.971E+00 0.000E+00

     total cpu time spent up to now is     3429.5 secs

     total energy              =   -7425.28754709 Ry
     Harris-Foulkes estimate   =   -7425.30526117 Ry
     estimated scf accuracy    <       0.06815075 Ry

     iteration #  9     ecut=    50.00 Ry     beta=0.70
     Davidson diagonalization with overlap
     ethr =  8.52E-06,  avg # of iterations =  6.0

     negative rho (up, down):  1.972E+00 0.000E+00

     total cpu time spent up to now is     3695.5 secs

     total energy              =   -7425.29051087 Ry
     Harris-Foulkes estimate   =   -7425.29832074 Ry
     estimated scf accuracy    <       0.02446080 Ry

     iteration # 10     ecut=    50.00 Ry     beta=0.70
     Davidson diagonalization with overlap
     ethr =  3.06E-06,  avg # of iterations =  6.7

     negative rho (up, down):  1.973E+00 0.000E+00

     total cpu time spent up to now is     3930.6 secs

     total energy              =   -7425.29245905 Ry
     Harris-Foulkes estimate   =   -7425.29469726 Ry
     estimated scf accuracy    <       0.00609503 Ry

     iteration # 11     ecut=    50.00 Ry     beta=0.70
     Davidson diagonalization with overlap
     ethr =  7.62E-07,  avg # of iterations =  5.7

     negative rho (up, down):  1.973E+00 0.000E+00

     total cpu time spent up to now is     4197.5 secs

     total energy              =   -7425.29311191 Ry
     Harris-Foulkes estimate   =   -7425.29392138 Ry
     estimated scf accuracy    <       0.00253314 Ry

     iteration # 12     ecut=    50.00 Ry     beta=0.70
     Davidson diagonalization with overlap
     ethr =  3.17E-07,  avg # of iterations =  2.0

     negative rho (up, down):  1.974E+00 0.000E+00

     total cpu time spent up to now is     4402.2 secs

     total energy              =   -7425.29297724 Ry
     Harris-Foulkes estimate   =   -7425.29368499 Ry
     estimated scf accuracy    <       0.00189835 Ry

     iteration # 13     ecut=    50.00 Ry     beta=0.70
     Davidson diagonalization with overlap
     ethr =  2.37E-07,  avg # of iterations =  6.0

     negative rho (up, down):  1.974E+00 0.000E+00

     total cpu time spent up to now is     4771.7 secs

     total energy              =   -7425.29238972 Ry
     Harris-Foulkes estimate   =   -7425.29458126 Ry
     estimated scf accuracy    <       0.01173246 Ry

     iteration # 14     ecut=    50.00 Ry     beta=0.70
     Davidson diagonalization with overlap
     ethr =  2.37E-07,  avg # of iterations =  3.0

     negative rho (up, down):  1.974E+00 0.000E+00

     total cpu time spent up to now is     5059.1 secs

     total energy              =   -7425.29342305 Ry
     Harris-Foulkes estimate   =   -7425.29346527 Ry
     estimated scf accuracy    <       0.00012322 Ry

     iteration # 15     ecut=    50.00 Ry     beta=0.70
     Davidson diagonalization with overlap
     ethr =  1.54E-08,  avg # of iterations =  2.0

     negative rho (up, down):  1.974E+00 0.000E+00

     total cpu time spent up to now is     5333.8 secs

     total energy              =   -7425.29343673 Ry
     Harris-Foulkes estimate   =   -7425.29346846 Ry
     estimated scf accuracy    <       0.00016925 Ry

     iteration # 16     ecut=    50.00 Ry     beta=0.70
     Davidson diagonalization with overlap
     ethr =  1.54E-08,  avg # of iterations =  2.0

     negative rho (up, down):  1.974E+00 0.000E+00

     total cpu time spent up to now is     5568.3 secs

     total energy              =   -7425.29344896 Ry
     Harris-Foulkes estimate   =   -7425.29345725 Ry
     estimated scf accuracy    <       0.00004047 Ry

     iteration # 17     ecut=    50.00 Ry     beta=0.70
     Davidson diagonalization with overlap
     ethr =  5.06E-09,  avg # of iterations =  2.0

     negative rho (up, down):  1.974E+00 0.000E+00

     total cpu time spent up to now is     5801.0 secs

     total energy              =   -7425.29345197 Ry
     Harris-Foulkes estimate   =   -7425.29345665 Ry
     estimated scf accuracy    <       0.00002869 Ry

     iteration # 18     ecut=    50.00 Ry     beta=0.70
     Davidson diagonalization with overlap
     ethr =  3.59E-09,  avg # of iterations =  1.0

     negative rho (up, down):  1.974E+00 0.000E+00

     total cpu time spent up to now is     6031.5 secs

     total energy              =   -7425.29345354 Ry
     Harris-Foulkes estimate   =   -7425.29345489 Ry
     estimated scf accuracy    <       0.00000528 Ry

     iteration # 19     ecut=    50.00 Ry     beta=0.70
     Davidson diagonalization with overlap
     ethr =  6.60E-10,  avg # of iterations =  2.0

     negative rho (up, down):  1.974E+00 0.000E+00

     total cpu time spent up to now is     6263.8 secs

     total energy              =   -7425.29345410 Ry
     Harris-Foulkes estimate   =   -7425.29345460 Ry
     estimated scf accuracy    <       0.00000226 Ry

     iteration # 20     ecut=    50.00 Ry     beta=0.70
     Davidson diagonalization with overlap
     ethr =  2.82E-10,  avg # of iterations =  3.0

     negative rho (up, down):  1.974E+00 0.000E+00

     total cpu time spent up to now is     6504.9 secs

     total energy              =   -7425.29345432 Ry
     Harris-Foulkes estimate   =   -7425.29345440 Ry
     estimated scf accuracy    <       0.00000020 Ry

     iteration # 21     ecut=    50.00 Ry     beta=0.70
     Davidson diagonalization with overlap
     ethr =  2.48E-11,  avg # of iterations =  3.0

     negative rho (up, down):  1.974E+00 0.000E+00

     total cpu time spent up to now is     6802.6 secs

     total energy              =   -7425.29345434 Ry
     Harris-Foulkes estimate   =   -7425.29345440 Ry
     estimated scf accuracy    <       0.00000019 Ry

     iteration # 22     ecut=    50.00 Ry     beta=0.70
     Davidson diagonalization with overlap
     ethr =  2.35E-11,  avg # of iterations =  2.0

     negative rho (up, down):  1.974E+00 0.000E+00

     total cpu time spent up to now is     7052.6 secs

     total energy              =   -7425.29345435 Ry
     Harris-Foulkes estimate   =   -7425.29345439 Ry
     estimated scf accuracy    <       0.00000012 Ry

     iteration # 23     ecut=    50.00 Ry     beta=0.70
     Davidson diagonalization with overlap
     ethr =  1.54E-11,  avg # of iterations =  2.0

     negative rho (up, down):  1.974E+00 0.000E+00

     total cpu time spent up to now is     7291.6 secs

     total energy              =   -7425.29345436 Ry
     Harris-Foulkes estimate   =   -7425.29345437 Ry
     estimated scf accuracy    <       0.00000005 Ry

     iteration # 24     ecut=    50.00 Ry     beta=0.70
     Davidson diagonalization with overlap
     ethr =  6.77E-12,  avg # of iterations =  2.0

     negative rho (up, down):  1.974E+00 0.000E+00

     total cpu time spent up to now is     7541.9 secs

     total energy              =   -7425.29345436 Ry
     Harris-Foulkes estimate   =   -7425.29345438 Ry
     estimated scf accuracy    <       0.00000004 Ry

     iteration # 25     ecut=    50.00 Ry     beta=0.70
     Davidson diagonalization with overlap
     ethr =  5.45E-12,  avg # of iterations =  2.0

     negative rho (up, down):  1.974E+00 0.000E+00

     total cpu time spent up to now is     7773.7 secs

     End of self-consistent calculation

          k = 0.2500 0.2500 0.0833 (167653 PWs)   bands (ev):

   -19.6815  -7.5238  -6.8138  -6.2858  -6.2849  -5.8559  -5.4476  -5.3539
    -5.3533  -5.1577  -5.1574  -5.0410  -5.0397  -4.9612  -4.9386  -4.8653
    -4.7804  -4.7766  -4.7381  -4.7375  -4.5773  -4.5601  -4.5590  -4.5587
    -4.5517  -4.4962  -4.4960  -4.4843  -4.4839  -4.4471  -4.4353  -4.4344
    -4.3924  -4.3922  -4.3591  -4.3577  -4.3068  -4.3056  -4.2959  -4.2938
    -4.2881  -4.2751  -4.2750  -4.2347  -4.2159  -4.2157  -4.2087  -4.2084
    -4.1771  -4.1277  -4.1115  -4.1111  -4.1101  -4.1074  -4.0997  -4.0942
    -4.0941  -4.0932  -4.0307  -4.0287  -3.9796  -3.9786  -3.9670  -3.9411
    -3.9402  -3.9218  -3.9174  -3.9169  -3.9134  -3.9103  -3.8613  -3.8607
    -3.8483  -3.8477  -3.7623  -3.7427  -3.7411  -3.7362  -3.7114  -3.6985
    -3.6922  -3.6751  -3.6459  -3.6452  -3.6168  -3.6162  -3.5952  -3.5947
    -3.5820  -3.5812  -3.5263  -3.5259  -3.5084  -3.4920  -3.4815  -3.4797
    -3.4791  -3.4774  -3.4511  -3.4509  -3.4147  -3.4142  -3.3937  -3.3912
    -3.3602  -3.3580  -3.3414  -3.3135  -3.3128  -3.2760  -3.2754  -3.2399
    -3.2321  -3.2315  -3.2179  -3.2171  -3.2127  -3.2122  -3.1756  -3.1635
    -3.1238  -3.1233  -3.1148  -3.1060  -3.1053  -3.1038  -3.0796  -3.0793
    -3.0586  -3.0581  -3.0573  -3.0308  -3.0303  -3.0228  -3.0205  -3.0197
    -2.9836  -2.9806  -2.9452  -2.9439  -2.9436  -2.9409  -2.9399  -2.8606
    -2.8511  -2.8475  -2.8464  -2.8457  -2.8450  -2.8420  -2.8400  -2.8392
    -2.8390  -2.8295  -2.8217  -2.8063  -2.8039  -2.8022  -2.8012  -2.7871
    -2.7827  -2.7452  -2.7439  -2.7432  -2.7397  -2.7387  -2.7205  -2.7202
    -2.7121  -2.7118  -2.7089  -2.6506  -2.6502  -2.6448  -2.6442  -2.6416
    -2.6395  -2.6125  -2.5537  -2.5518  -2.5508  -2.5481  -2.5370  -2.5359
    -2.5326  -2.5206  -2.5191  -2.4856  -2.4824  -2.4757  -2.4744  -2.4729
    -2.4723  -2.4343  -2.4333  -2.4237  -2.4227  -2.4216  -2.4210  -2.3818
    -2.3685  -2.3586  -2.3045  -2.3036  -2.2871  -2.2858  -2.2815  -2.2788
    -2.2313  -2.2296  -2.2063  -2.1923  -2.1784  -2.1761  -2.1744  -2.1543
    -2.1527  -2.1431  -2.1394  -2.0930  -2.0868  -2.0754  -2.0708  -2.0701
    -2.0654  -2.0600  -2.0575  -2.0460  -2.0439  -2.0396  -2.0374  -2.0345
    -2.0334  -2.0235  -2.0223  -2.0099  -2.0042  -2.0028  -1.9974  -1.9942
    -1.9927  -1.9849  -1.9696  -1.9673  -1.9562  -1.9556  -1.9501  -1.9226
    -1.8956  -1.8785  -1.8621  -1.8427  -1.8260  -1.8253  -1.8149  -1.8111
    -1.7911  -1.7884  -1.7771  -1.7758  -1.7744  -1.7731  -1.7713  -1.7602
    -1.7383  -1.7378  -1.7279  -1.6924  -1.6858  -1.6535  -1.6485  -1.6051
    -1.6027  -1.5897  -1.5698  -1.5622  -1.5616  -1.5454  -1.5427  -1.5280
    -1.5259  -1.5220  -1.5214  -1.5200  -1.5197  -1.5172  -1.5109  -1.4969
    -1.4943  -1.4746  -1.4689  -1.4506  -1.4497  -1.4249  -1.4228  -1.4206
    -1.4196  -1.4150  -1.4078  -1.3927  -1.3877  -1.3769  -1.3678  -1.3552
    -1.3543  -1.3396  -1.3308  -1.3099  -1.3089  -1.3018  -1.2951  -1.2653
    -1.2637  -1.2562  -1.2538  -1.2484  -1.2413  -1.2267  -1.2255  -1.2148
    -1.2070  -1.2053  -1.1954  -1.1939  -1.1932  -1.1843  -1.1794  -1.1684
    -1.1674  -1.1599  -1.1598  -1.1477  -1.1436  -1.1374  -1.1329  -1.0974
    -1.0943  -1.0897  -1.0878  -1.0872  -1.0805  -1.0487  -1.0317  -1.0309
    -1.0302  -1.0279  -1.0265  -1.0207  -1.0185  -1.0053  -0.9987  -0.9693
    -0.9636  -0.9616  -0.9590  -0.9389  -0.9384  -0.9289  -0.8996  -0.8916
    -0.8643  -0.8635  -0.8364  -0.8361  -0.8325  -0.8321  -0.8305  -0.8262
    -0.8217  -0.8192  -0.8170  -0.8166  -0.7851  -0.7850  -0.7675  -0.7633
    -0.7617  -0.7608  -0.7595  -0.7439  -0.7407  -0.4664  -0.4541  -0.3995
    -0.3847  -0.3586  -0.1996  -0.1340  -0.1333  -0.0952   0.1850   0.1892
     0.5146   0.5236   0.6139   0.6147   0.6553   0.6564   0.7982   0.8065
     0.9233   0.9258   1.0158   1.6104   1.6284   1.6298   1.6666   1.6742
     1.7145   1.7258   1.7982   1.8039   2.0057   2.0068   2.2420   2.3198
     2.3254   2.3379   2.7147   2.7244   2.7911   2.7919   2.7993   2.8000
     2.9489   2.9515   2.9914   3.0929   3.0966   3.3251   3.3276   3.4602
     3.4875   3.4907   3.7578   3.7614   3.8727   3.8909   3.8919   3.9340
     3.9674   4.0767   4.0786   4.3130   4.3162   4.4021   4.4044   4.5268
     4.5284   4.5492   4.5626   4.6771   5.0031   5.3416   5.3589   5.4510
     5.4567   5.5190   5.6360   5.6388   5.6522   5.7025   5.7304   5.7543
     5.7574   5.8030   5.8081   5.8492   6.0136   6.0740   6.1101   6.1173
     6.1315   6.1365   6.1480   6.1491   6.1601   6.1611   6.1796   6.2178

          k = 0.2500 0.2500-0.2500 (167588 PWs)   bands (ev):

   -19.6815  -7.5238  -6.8138  -6.2858  -6.2849  -5.8559  -5.4476  -5.3539
    -5.3533  -5.1577  -5.1573  -5.0410  -5.0397  -4.9612  -4.9386  -4.8653
    -4.7804  -4.7766  -4.7381  -4.7375  -4.5773  -4.5601  -4.5590  -4.5587
    -4.5517  -4.4962  -4.4960  -4.4843  -4.4839  -4.4471  -4.4353  -4.4344
    -4.3924  -4.3922  -4.3591  -4.3577  -4.3068  -4.3056  -4.2959  -4.2938
    -4.2881  -4.2752  -4.2750  -4.2347  -4.2159  -4.2157  -4.2087  -4.2084
    -4.1771  -4.1277  -4.1115  -4.1111  -4.1101  -4.1074  -4.0997  -4.0942
    -4.0941  -4.0932  -4.0307  -4.0287  -3.9796  -3.9786  -3.9670  -3.9411
    -3.9402  -3.9218  -3.9174  -3.9169  -3.9134  -3.9103  -3.8613  -3.8607
    -3.8483  -3.8477  -3.7623  -3.7427  -3.7411  -3.7362  -3.7114  -3.6985
    -3.6922  -3.6751  -3.6459  -3.6452  -3.6168  -3.6162  -3.5952  -3.5947
    -3.5820  -3.5812  -3.5263  -3.5259  -3.5084  -3.4920  -3.4815  -3.4797
    -3.4791  -3.4774  -3.4511  -3.4509  -3.4147  -3.4142  -3.3937  -3.3912
    -3.3602  -3.3580  -3.3414  -3.3135  -3.3128  -3.2760  -3.2754  -3.2399
    -3.2321  -3.2315  -3.2178  -3.2171  -3.2127  -3.2122  -3.1757  -3.1635
    -3.1238  -3.1233  -3.1148  -3.1060  -3.1053  -3.1038  -3.0796  -3.0793
    -3.0586  -3.0581  -3.0573  -3.0308  -3.0303  -3.0228  -3.0205  -3.0196
    -2.9836  -2.9806  -2.9452  -2.9439  -2.9436  -2.9409  -2.9399  -2.8606
    -2.8511  -2.8475  -2.8463  -2.8457  -2.8450  -2.8420  -2.8399  -2.8392
    -2.8390  -2.8295  -2.8217  -2.8063  -2.8039  -2.8022  -2.8012  -2.7871
    -2.7827  -2.7452  -2.7439  -2.7432  -2.7397  -2.7387  -2.7205  -2.7202
    -2.7121  -2.7118  -2.7089  -2.6506  -2.6502  -2.6448  -2.6442  -2.6416
    -2.6395  -2.6125  -2.5536  -2.5518  -2.5508  -2.5481  -2.5370  -2.5359
    -2.5326  -2.5206  -2.5191  -2.4856  -2.4824  -2.4757  -2.4743  -2.4729
    -2.4723  -2.4343  -2.4333  -2.4237  -2.4227  -2.4216  -2.4210  -2.3818
    -2.3685  -2.3586  -2.3045  -2.3036  -2.2871  -2.2858  -2.2815  -2.2788
    -2.2313  -2.2296  -2.2063  -2.1923  -2.1784  -2.1761  -2.1744  -2.1543
    -2.1527  -2.1431  -2.1394  -2.0930  -2.0868  -2.0753  -2.0708  -2.0701
    -2.0654  -2.0600  -2.0575  -2.0460  -2.0439  -2.0397  -2.0374  -2.0345
    -2.0334  -2.0235  -2.0223  -2.0099  -2.0042  -2.0028  -1.9974  -1.9942
    -1.9927  -1.9849  -1.9696  -1.9673  -1.9562  -1.9556  -1.9501  -1.9226
    -1.8956  -1.8785  -1.8621  -1.8427  -1.8260  -1.8253  -1.8149  -1.8111
    -1.7911  -1.7884  -1.7771  -1.7758  -1.7744  -1.7731  -1.7713  -1.7602
    -1.7383  -1.7378  -1.7279  -1.6924  -1.6858  -1.6535  -1.6485  -1.6051
    -1.6027  -1.5897  -1.5698  -1.5622  -1.5616  -1.5454  -1.5427  -1.5280
    -1.5259  -1.5220  -1.5214  -1.5200  -1.5197  -1.5172  -1.5109  -1.4969
    -1.4943  -1.4746  -1.4689  -1.4506  -1.4497  -1.4249  -1.4228  -1.4205
    -1.4196  -1.4150  -1.4078  -1.3927  -1.3877  -1.3769  -1.3678  -1.3552
    -1.3543  -1.3395  -1.3308  -1.3099  -1.3089  -1.3018  -1.2951  -1.2653
    -1.2637  -1.2562  -1.2538  -1.2484  -1.2413  -1.2267  -1.2255  -1.2148
    -1.2070  -1.2053  -1.1954  -1.1939  -1.1932  -1.1843  -1.1794  -1.1685
    -1.1674  -1.1599  -1.1598  -1.1477  -1.1436  -1.1374  -1.1328  -1.0974
    -1.0943  -1.0897  -1.0877  -1.0872  -1.0805  -1.0487  -1.0317  -1.0309
    -1.0302  -1.0279  -1.0265  -1.0207  -1.0185  -1.0053  -0.9987  -0.9693
    -0.9636  -0.9616  -0.9590  -0.9389  -0.9384  -0.9289  -0.8996  -0.8916
    -0.8642  -0.8634  -0.8364  -0.8361  -0.8325  -0.8321  -0.8305  -0.8262
    -0.8217  -0.8192  -0.8170  -0.8166  -0.7852  -0.7850  -0.7675  -0.7633
    -0.7617  -0.7608  -0.7595  -0.7439  -0.7407  -0.4664  -0.4541  -0.3995
    -0.3847  -0.3586  -0.1996  -0.1340  -0.1333  -0.0952   0.1850   0.1892
     0.5146   0.5236   0.6139   0.6147   0.6553   0.6564   0.7982   0.8065
     0.9233   0.9258   1.0158   1.6104   1.6284   1.6298   1.6666   1.6742
     1.7145   1.7259   1.7982   1.8039   2.0057   2.0068   2.2420   2.3198
     2.3254   2.3379   2.7147   2.7244   2.7911   2.7919   2.7993   2.8000
     2.9489   2.9515   2.9914   3.0929   3.0966   3.3251   3.3276   3.4602
     3.4876   3.4907   3.7578   3.7614   3.8727   3.8909   3.8919   3.9341
     3.9674   4.0767   4.0786   4.3130   4.3162   4.4021   4.4044   4.5268
     4.5284   4.5492   4.5626   4.6771   4.9983   5.3401   5.3550   5.4486
     5.4561   5.5084   5.6375   5.6394   5.6790   5.7111   5.7477   5.7542
     5.7585   5.8030   5.8081   5.8489   6.0316   6.0779   6.0936   6.1180
     6.1333   6.1451   6.1495   6.1511   6.1599   6.1611   6.2029   6.2181

          k =-0.2500-0.2500 0.0833 (167653 PWs)   bands (ev):

   -19.6815  -7.5238  -6.8138  -6.2858  -6.2849  -5.8559  -5.4476  -5.3539
    -5.3533  -5.1577  -5.1574  -5.0410  -5.0397  -4.9612  -4.9386  -4.8653
    -4.7804  -4.7766  -4.7381  -4.7375  -4.5773  -4.5601  -4.5590  -4.5587
    -4.5517  -4.4962  -4.4960  -4.4843  -4.4839  -4.4471  -4.4353  -4.4344
    -4.3924  -4.3922  -4.3591  -4.3577  -4.3068  -4.3056  -4.2959  -4.2938
    -4.2881  -4.2751  -4.2750  -4.2347  -4.2159  -4.2157  -4.2087  -4.2084
    -4.1771  -4.1277  -4.1115  -4.1111  -4.1101  -4.1074  -4.0997  -4.0942
    -4.0941  -4.0932  -4.0307  -4.0287  -3.9796  -3.9786  -3.9670  -3.9411
    -3.9402  -3.9218  -3.9174  -3.9169  -3.9134  -3.9103  -3.8613  -3.8607
    -3.8483  -3.8477  -3.7623  -3.7427  -3.7411  -3.7362  -3.7114  -3.6985
    -3.6922  -3.6751  -3.6459  -3.6452  -3.6168  -3.6162  -3.5952  -3.5947
    -3.5820  -3.5812  -3.5263  -3.5259  -3.5084  -3.4920  -3.4815  -3.4797
    -3.4791  -3.4774  -3.4511  -3.4509  -3.4147  -3.4142  -3.3937  -3.3912
    -3.3602  -3.3580  -3.3414  -3.3135  -3.3128  -3.2760  -3.2754  -3.2399
    -3.2321  -3.2315  -3.2179  -3.2171  -3.2127  -3.2122  -3.1756  -3.1635
    -3.1238  -3.1233  -3.1148  -3.1060  -3.1053  -3.1038  -3.0796  -3.0793
    -3.0586  -3.0581  -3.0573  -3.0308  -3.0303  -3.0228  -3.0205  -3.0197
    -2.9836  -2.9806  -2.9452  -2.9439  -2.9436  -2.9409  -2.9399  -2.8606
    -2.8511  -2.8475  -2.8464  -2.8457  -2.8450  -2.8420  -2.8400  -2.8392
    -2.8390  -2.8295  -2.8217  -2.8063  -2.8039  -2.8022  -2.8012  -2.7871
    -2.7827  -2.7452  -2.7439  -2.7432  -2.7397  -2.7387  -2.7205  -2.7202
    -2.7121  -2.7118  -2.7089  -2.6506  -2.6502  -2.6448  -2.6442  -2.6416
    -2.6395  -2.6125  -2.5537  -2.5518  -2.5508  -2.5481  -2.5370  -2.5359
    -2.5326  -2.5206  -2.5191  -2.4856  -2.4824  -2.4757  -2.4744  -2.4729
    -2.4723  -2.4343  -2.4333  -2.4237  -2.4227  -2.4216  -2.4210  -2.3818
    -2.3685  -2.3586  -2.3045  -2.3036  -2.2871  -2.2858  -2.2815  -2.2788
    -2.2313  -2.2296  -2.2063  -2.1923  -2.1784  -2.1761  -2.1744  -2.1543
    -2.1527  -2.1431  -2.1394  -2.0930  -2.0868  -2.0754  -2.0708  -2.0701
    -2.0654  -2.0600  -2.0575  -2.0460  -2.0439  -2.0396  -2.0374  -2.0345
    -2.0334  -2.0235  -2.0223  -2.0099  -2.0042  -2.0028  -1.9974  -1.9942
    -1.9927  -1.9849  -1.9696  -1.9673  -1.9562  -1.9556  -1.9501  -1.9226
    -1.8956  -1.8785  -1.8621  -1.8427  -1.8260  -1.8253  -1.8149  -1.8111
    -1.7911  -1.7884  -1.7771  -1.7758  -1.7744  -1.7731  -1.7713  -1.7602
    -1.7383  -1.7378  -1.7279  -1.6924  -1.6858  -1.6535  -1.6485  -1.6051
    -1.6027  -1.5897  -1.5698  -1.5622  -1.5616  -1.5454  -1.5427  -1.5280
    -1.5259  -1.5220  -1.5214  -1.5200  -1.5197  -1.5172  -1.5109  -1.4969
    -1.4943  -1.4746  -1.4689  -1.4506  -1.4497  -1.4249  -1.4228  -1.4206
    -1.4196  -1.4150  -1.4078  -1.3927  -1.3877  -1.3769  -1.3678  -1.3552
    -1.3543  -1.3396  -1.3308  -1.3099  -1.3089  -1.3018  -1.2951  -1.2653
    -1.2637  -1.2562  -1.2538  -1.2484  -1.2413  -1.2267  -1.2255  -1.2148
    -1.2070  -1.2053  -1.1954  -1.1939  -1.1932  -1.1843  -1.1794  -1.1684
    -1.1674  -1.1599  -1.1598  -1.1477  -1.1436  -1.1374  -1.1329  -1.0974
    -1.0943  -1.0897  -1.0878  -1.0872  -1.0805  -1.0487  -1.0317  -1.0309
    -1.0302  -1.0279  -1.0265  -1.0207  -1.0185  -1.0053  -0.9987  -0.9693
    -0.9636  -0.9616  -0.9590  -0.9389  -0.9384  -0.9289  -0.8996  -0.8916
    -0.8643  -0.8635  -0.8364  -0.8361  -0.8325  -0.8321  -0.8305  -0.8262
    -0.8217  -0.8192  -0.8170  -0.8166  -0.7851  -0.7850  -0.7675  -0.7633
    -0.7617  -0.7608  -0.7595  -0.7439  -0.7407  -0.4664  -0.4541  -0.3995
    -0.3847  -0.3586  -0.1996  -0.1340  -0.1333  -0.0952   0.1850   0.1892
     0.5146   0.5236   0.6139   0.6147   0.6553   0.6564   0.7982   0.8065
     0.9233   0.9258   1.0158   1.6104   1.6284   1.6298   1.6666   1.6742
     1.7145   1.7258   1.7982   1.8039   2.0057   2.0068   2.2420   2.3198
     2.3254   2.3379   2.7147   2.7244   2.7911   2.7919   2.7993   2.8000
     2.9489   2.9515   2.9914   3.0929   3.0966   3.3251   3.3276   3.4602
     3.4875   3.4907   3.7578   3.7614   3.8727   3.8909   3.8919   3.9340
     3.9674   4.0767   4.0786   4.3130   4.3162   4.4021   4.4044   4.5268
     4.5284   4.5492   4.5626   4.6771   5.0029   5.3416   5.3600   5.4510
     5.4565   5.5150   5.6358   5.6389   5.6573   5.7031   5.7299   5.7543
     5.7574   5.8032   5.8081   5.8492   6.0154   6.0737   6.1078   6.1174
     6.1313   6.1364   6.1483   6.1493   6.1600   6.1611   6.1712   6.2147

          k =-0.2500 0.2500-0.0833 (167653 PWs)   bands (ev):

   -19.6815  -7.5238  -6.8137  -6.2862  -6.2845  -5.8558  -5.4476  -5.3543
    -5.3529  -5.1578  -5.1574  -5.0413  -5.0394  -4.9611  -4.9386  -4.8653
    -4.7805  -4.7765  -4.7381  -4.7374  -4.5774  -4.5602  -4.5593  -4.5582
    -4.5517  -4.4964  -4.4959  -4.4847  -4.4836  -4.4470  -4.4356  -4.4341
    -4.3925  -4.3922  -4.3589  -4.3578  -4.3069  -4.3052  -4.2961  -4.2937
    -4.2882  -4.2751  -4.2750  -4.2350  -4.2161  -4.2156  -4.2089  -4.2081
    -4.1773  -4.1279  -4.1119  -4.1108  -4.1095  -4.1077  -4.0997  -4.0943
    -4.0941  -4.0933  -4.0306  -4.0284  -3.9798  -3.9784  -3.9668  -3.9411
    -3.9404  -3.9215  -3.9172  -3.9171  -3.9142  -3.9102  -3.8617  -3.8607
    -3.8487  -3.8474  -3.7550  -3.7428  -3.7404  -3.7365  -3.7188  -3.6987
    -3.6922  -3.6751  -3.6462  -3.6445  -3.6172  -3.6160  -3.5961  -3.5947
    -3.5824  -3.5810  -3.5266  -3.5258  -3.5067  -3.4920  -3.4808  -3.4796
    -3.4791  -3.4778  -3.4518  -3.4507  -3.4145  -3.4141  -3.3938  -3.3915
    -3.3602  -3.3581  -3.3413  -3.3130  -3.3128  -3.2761  -3.2755  -3.2402
    -3.2321  -3.2315  -3.2184  -3.2172  -3.2126  -3.2122  -3.1756  -3.1635
    -3.1238  -3.1233  -3.1148  -3.1063  -3.1049  -3.1039  -3.0797  -3.0793
    -3.0588  -3.0580  -3.0571  -3.0306  -3.0302  -3.0228  -3.0203  -3.0197
    -2.9836  -2.9804  -2.9457  -2.9440  -2.9436  -2.9409  -2.9399  -2.8607
    -2.8511  -2.8475  -2.8463  -2.8458  -2.8448  -2.8417  -2.8403  -2.8393
    -2.8389  -2.8295  -2.8217  -2.8065  -2.8039  -2.8022  -2.8013  -2.7870
    -2.7824  -2.7453  -2.7438  -2.7433  -2.7399  -2.7387  -2.7209  -2.7200
    -2.7123  -2.7117  -2.7089  -2.6507  -2.6500  -2.6447  -2.6442  -2.6410
    -2.6398  -2.6124  -2.5540  -2.5515  -2.5509  -2.5481  -2.5370  -2.5356
    -2.5329  -2.5204  -2.5190  -2.4858  -2.4823  -2.4759  -2.4743  -2.4731
    -2.4723  -2.4348  -2.4332  -2.4237  -2.4228  -2.4217  -2.4208  -2.3822
    -2.3682  -2.3589  -2.3045  -2.3036  -2.2877  -2.2849  -2.2818  -2.2789
    -2.2319  -2.2294  -2.2063  -2.1927  -2.1775  -2.1767  -2.1744  -2.1545
    -2.1522  -2.1430  -2.1390  -2.0928  -2.0864  -2.0766  -2.0714  -2.0696
    -2.0628  -2.0599  -2.0586  -2.0453  -2.0440  -2.0397  -2.0378  -2.0347
    -2.0331  -2.0236  -2.0226  -2.0100  -2.0037  -2.0027  -1.9961  -1.9944
    -1.9925  -1.9854  -1.9695  -1.9671  -1.9561  -1.9555  -1.9505  -1.9220
    -1.8946  -1.8789  -1.8593  -1.8427  -1.8259  -1.8250  -1.8172  -1.8111
    -1.7917  -1.7864  -1.7793  -1.7754  -1.7744  -1.7736  -1.7720  -1.7613
    -1.7385  -1.7378  -1.7283  -1.6928  -1.6855  -1.6531  -1.6492  -1.6052
    -1.6023  -1.5899  -1.5700  -1.5622  -1.5615  -1.5450  -1.5430  -1.5269
    -1.5256  -1.5226  -1.5217  -1.5200  -1.5196  -1.5173  -1.5110  -1.4971
    -1.4943  -1.4741  -1.4690  -1.4512  -1.4502  -1.4243  -1.4234  -1.4207
    -1.4196  -1.4143  -1.4079  -1.3933  -1.3866  -1.3777  -1.3680  -1.3550
    -1.3542  -1.3396  -1.3308  -1.3106  -1.3085  -1.3017  -1.2949  -1.2650
    -1.2626  -1.2565  -1.2535  -1.2488  -1.2412  -1.2265  -1.2256  -1.2151
    -1.2072  -1.2052  -1.1952  -1.1940  -1.1936  -1.1847  -1.1797  -1.1682
    -1.1672  -1.1602  -1.1597  -1.1475  -1.1441  -1.1375  -1.1333  -1.0976
    -1.0935  -1.0891  -1.0878  -1.0872  -1.0809  -1.0488  -1.0325  -1.0305
    -1.0301  -1.0282  -1.0273  -1.0208  -1.0175  -1.0054  -0.9982  -0.9698
    -0.9634  -0.9617  -0.9587  -0.9390  -0.9381  -0.9289  -0.8999  -0.8918
    -0.8648  -0.8629  -0.8364  -0.8358  -0.8326  -0.8321  -0.8305  -0.8261
    -0.8218  -0.8192  -0.8174  -0.8162  -0.7855  -0.7846  -0.7689  -0.7636
    -0.7610  -0.7606  -0.7597  -0.7425  -0.7408  -0.4663  -0.4541  -0.4014
    -0.3822  -0.3587  -0.1990  -0.1341  -0.1328  -0.0960   0.1840   0.1903
     0.5125   0.5253   0.6138   0.6152   0.6539   0.6584   0.7965   0.8084
     0.9232   0.9256   1.0161   1.6102   1.6287   1.6296   1.6634   1.6742
     1.7096   1.7323   1.7972   1.8060   2.0045   2.0079   2.2410   2.3165
     2.3282   2.3377   2.7087   2.7278   2.7904   2.7935   2.7986   2.8008
     2.9502   2.9506   2.9896   3.0924   3.1027   3.3245   3.3331   3.4595
     3.4857   3.4916   3.7559   3.7646   3.8687   3.8912   3.8921   3.9294
     3.9732   4.0752   4.0801   4.3146   4.3156   4.3966   4.4077   4.5205
     4.5301   4.5442   4.5652   4.6773   5.0051   5.3309   5.3660   5.4527
     5.4594   5.5222   5.6371   5.6435   5.6540   5.7046   5.7191   5.7496
     5.7606   5.8072   5.8079   5.8523   6.0087   6.0799   6.1071   6.1214
     6.1312   6.1345   6.1438   6.1516   6.1538   6.1611   6.1801   6.2096

          k = 0.2500-0.2500-0.0833 (167653 PWs)   bands (ev):

   -19.6815  -7.5238  -6.8137  -6.2862  -6.2845  -5.8558  -5.4476  -5.3543
    -5.3529  -5.1578  -5.1574  -5.0413  -5.0394  -4.9611  -4.9386  -4.8653
    -4.7805  -4.7765  -4.7381  -4.7374  -4.5774  -4.5602  -4.5593  -4.5582
    -4.5517  -4.4964  -4.4959  -4.4847  -4.4836  -4.4470  -4.4356  -4.4341
    -4.3925  -4.3922  -4.3589  -4.3578  -4.3069  -4.3052  -4.2961  -4.2937
    -4.2882  -4.2751  -4.2750  -4.2350  -4.2161  -4.2156  -4.2089  -4.2081
    -4.1773  -4.1279  -4.1119  -4.1108  -4.1095  -4.1077  -4.0997  -4.0943
    -4.0941  -4.0933  -4.0306  -4.0284  -3.9798  -3.9784  -3.9668  -3.9411
    -3.9404  -3.9215  -3.9172  -3.9171  -3.9142  -3.9102  -3.8617  -3.8607
    -3.8487  -3.8474  -3.7550  -3.7428  -3.7404  -3.7365  -3.7188  -3.6987
    -3.6922  -3.6751  -3.6462  -3.6445  -3.6172  -3.6160  -3.5961  -3.5947
    -3.5824  -3.5810  -3.5266  -3.5258  -3.5067  -3.4920  -3.4808  -3.4796
    -3.4791  -3.4778  -3.4518  -3.4507  -3.4145  -3.4141  -3.3938  -3.3915
    -3.3602  -3.3581  -3.3413  -3.3130  -3.3128  -3.2761  -3.2755  -3.2402
    -3.2321  -3.2315  -3.2184  -3.2172  -3.2126  -3.2122  -3.1756  -3.1635
    -3.1238  -3.1233  -3.1148  -3.1063  -3.1049  -3.1039  -3.0797  -3.0793
    -3.0588  -3.0580  -3.0571  -3.0306  -3.0302  -3.0228  -3.0203  -3.0197
    -2.9836  -2.9804  -2.9457  -2.9440  -2.9436  -2.9409  -2.9399  -2.8607
    -2.8511  -2.8475  -2.8463  -2.8458  -2.8448  -2.8417  -2.8403  -2.8393
    -2.8389  -2.8295  -2.8217  -2.8065  -2.8039  -2.8022  -2.8013  -2.7870
    -2.7824  -2.7453  -2.7438  -2.7433  -2.7399  -2.7387  -2.7209  -2.7200
    -2.7123  -2.7117  -2.7089  -2.6507  -2.6500  -2.6447  -2.6442  -2.6410
    -2.6398  -2.6124  -2.5540  -2.5515  -2.5509  -2.5481  -2.5370  -2.5356
    -2.5329  -2.5204  -2.5190  -2.4858  -2.4823  -2.4759  -2.4743  -2.4731
    -2.4723  -2.4348  -2.4332  -2.4237  -2.4228  -2.4217  -2.4208  -2.3822
    -2.3682  -2.3589  -2.3045  -2.3036  -2.2877  -2.2849  -2.2818  -2.2789
    -2.2319  -2.2294  -2.2063  -2.1927  -2.1775  -2.1767  -2.1744  -2.1545
    -2.1522  -2.1430  -2.1390  -2.0928  -2.0864  -2.0766  -2.0714  -2.0696
    -2.0628  -2.0599  -2.0586  -2.0453  -2.0440  -2.0397  -2.0378  -2.0347
    -2.0331  -2.0236  -2.0226  -2.0100  -2.0037  -2.0027  -1.9961  -1.9944
    -1.9925  -1.9854  -1.9695  -1.9671  -1.9561  -1.9555  -1.9505  -1.9220
    -1.8946  -1.8789  -1.8593  -1.8427  -1.8259  -1.8250  -1.8172  -1.8111
    -1.7917  -1.7864  -1.7793  -1.7754  -1.7744  -1.7736  -1.7720  -1.7613
    -1.7385  -1.7378  -1.7283  -1.6928  -1.6855  -1.6531  -1.6492  -1.6052
    -1.6023  -1.5899  -1.5700  -1.5622  -1.5615  -1.5450  -1.5430  -1.5269
    -1.5256  -1.5226  -1.5217  -1.5200  -1.5196  -1.5173  -1.5110  -1.4971
    -1.4943  -1.4741  -1.4690  -1.4512  -1.4502  -1.4243  -1.4234  -1.4207
    -1.4196  -1.4143  -1.4079  -1.3933  -1.3866  -1.3777  -1.3680  -1.3550
    -1.3542  -1.3396  -1.3308  -1.3106  -1.3085  -1.3017  -1.2949  -1.2650
    -1.2626  -1.2565  -1.2535  -1.2488  -1.2412  -1.2265  -1.2256  -1.2151
    -1.2072  -1.2052  -1.1952  -1.1940  -1.1936  -1.1847  -1.1797  -1.1682
    -1.1672  -1.1602  -1.1597  -1.1475  -1.1441  -1.1375  -1.1333  -1.0976
    -1.0935  -1.0891  -1.0878  -1.0872  -1.0809  -1.0488  -1.0325  -1.0305
    -1.0301  -1.0282  -1.0273  -1.0208  -1.0175  -1.0054  -0.9982  -0.9698
    -0.9634  -0.9617  -0.9587  -0.9390  -0.9381  -0.9289  -0.8999  -0.8918
    -0.8648  -0.8629  -0.8364  -0.8358  -0.8326  -0.8321  -0.8305  -0.8261
    -0.8218  -0.8192  -0.8174  -0.8162  -0.7855  -0.7846  -0.7689  -0.7636
    -0.7610  -0.7606  -0.7597  -0.7425  -0.7408  -0.4663  -0.4541  -0.4014
    -0.3822  -0.3587  -0.1990  -0.1341  -0.1328  -0.0960   0.1840   0.1903
     0.5125   0.5253   0.6138   0.6152   0.6539   0.6584   0.7965   0.8084
     0.9232   0.9256   1.0161   1.6102   1.6287   1.6296   1.6634   1.6742
     1.7096   1.7323   1.7972   1.8060   2.0045   2.0079   2.2410   2.3165
     2.3282   2.3377   2.7087   2.7278   2.7904   2.7935   2.7986   2.8008
     2.9502   2.9506   2.9896   3.0924   3.1027   3.3245   3.3331   3.4595
     3.4857   3.4916   3.7559   3.7646   3.8687   3.8912   3.8921   3.9294
     3.9732   4.0752   4.0801   4.3146   4.3156   4.3966   4.4077   4.5205
     4.5301   4.5442   4.5652   4.6773   5.0052   5.3312   5.3654   5.4524
     5.4594   5.5222   5.6374   5.6435   5.6562   5.7033   5.7184   5.7491
     5.7606   5.8072   5.8079   5.8523   6.0086   6.0745   6.1066   6.1219
     6.1320   6.1350   6.1438   6.1515   6.1538   6.1611   6.1861   6.2175

          k =-0.2500 0.2500 0.2500 (167588 PWs)   bands (ev):

   -19.6815  -7.5238  -6.8137  -6.2862  -6.2845  -5.8558  -5.4476  -5.3543
    -5.3529  -5.1578  -5.1574  -5.0413  -5.0394  -4.9611  -4.9386  -4.8653
    -4.7805  -4.7765  -4.7381  -4.7374  -4.5774  -4.5602  -4.5593  -4.5582
    -4.5517  -4.4964  -4.4959  -4.4847  -4.4836  -4.4470  -4.4356  -4.4341
    -4.3925  -4.3922  -4.3589  -4.3578  -4.3069  -4.3052  -4.2961  -4.2937
    -4.2882  -4.2751  -4.2750  -4.2350  -4.2161  -4.2156  -4.2089  -4.2081
    -4.1773  -4.1279  -4.1119  -4.1108  -4.1095  -4.1077  -4.0997  -4.0943
    -4.0941  -4.0933  -4.0306  -4.0284  -3.9798  -3.9784  -3.9668  -3.9411
    -3.9404  -3.9215  -3.9172  -3.9171  -3.9142  -3.9102  -3.8617  -3.8607
    -3.8486  -3.8474  -3.7550  -3.7428  -3.7404  -3.7366  -3.7188  -3.6987
    -3.6922  -3.6751  -3.6462  -3.6445  -3.6172  -3.6160  -3.5961  -3.5947
    -3.5824  -3.5810  -3.5266  -3.5258  -3.5067  -3.4920  -3.4808  -3.4796
    -3.4790  -3.4778  -3.4518  -3.4507  -3.4145  -3.4140  -3.3938  -3.3915
    -3.3602  -3.3581  -3.3413  -3.3130  -3.3128  -3.2761  -3.2755  -3.2402
    -3.2321  -3.2315  -3.2184  -3.2172  -3.2126  -3.2122  -3.1756  -3.1636
    -3.1238  -3.1233  -3.1148  -3.1063  -3.1049  -3.1039  -3.0797  -3.0793
    -3.0588  -3.0580  -3.0571  -3.0306  -3.0302  -3.0228  -3.0203  -3.0197
    -2.9836  -2.9804  -2.9457  -2.9440  -2.9436  -2.9409  -2.9399  -2.8607
    -2.8511  -2.8475  -2.8463  -2.8458  -2.8448  -2.8417  -2.8403  -2.8393
    -2.8389  -2.8295  -2.8217  -2.8065  -2.8039  -2.8022  -2.8013  -2.7870
    -2.7824  -2.7453  -2.7438  -2.7433  -2.7399  -2.7387  -2.7209  -2.7200
    -2.7123  -2.7117  -2.7089  -2.6507  -2.6500  -2.6447  -2.6442  -2.6410
    -2.6398  -2.6124  -2.5540  -2.5515  -2.5509  -2.5481  -2.5370  -2.5356
    -2.5329  -2.5204  -2.5190  -2.4858  -2.4823  -2.4759  -2.4743  -2.4731
    -2.4723  -2.4348  -2.4332  -2.4237  -2.4228  -2.4217  -2.4208  -2.3822
    -2.3682  -2.3589  -2.3045  -2.3036  -2.2877  -2.2849  -2.2818  -2.2789
    -2.2319  -2.2294  -2.2063  -2.1927  -2.1775  -2.1767  -2.1744  -2.1545
    -2.1522  -2.1430  -2.1390  -2.0928  -2.0864  -2.0766  -2.0714  -2.0696
    -2.0628  -2.0599  -2.0586  -2.0453  -2.0440  -2.0397  -2.0378  -2.0347
    -2.0331  -2.0236  -2.0226  -2.0100  -2.0037  -2.0027  -1.9961  -1.9944
    -1.9925  -1.9854  -1.9695  -1.9671  -1.9561  -1.9555  -1.9505  -1.9220
    -1.8946  -1.8789  -1.8593  -1.8427  -1.8259  -1.8250  -1.8171  -1.8111
    -1.7917  -1.7864  -1.7793  -1.7754  -1.7744  -1.7736  -1.7720  -1.7613
    -1.7385  -1.7378  -1.7283  -1.6928  -1.6855  -1.6531  -1.6492  -1.6052
    -1.6023  -1.5899  -1.5700  -1.5622  -1.5615  -1.5450  -1.5430  -1.5269
    -1.5256  -1.5226  -1.5217  -1.5200  -1.5196  -1.5172  -1.5110  -1.4971
    -1.4943  -1.4741  -1.4690  -1.4512  -1.4502  -1.4243  -1.4234  -1.4207
    -1.4196  -1.4143  -1.4079  -1.3933  -1.3866  -1.3777  -1.3680  -1.3550
    -1.3543  -1.3396  -1.3308  -1.3106  -1.3085  -1.3017  -1.2949  -1.2650
    -1.2626  -1.2565  -1.2535  -1.2488  -1.2412  -1.2265  -1.2256  -1.2151
    -1.2072  -1.2052  -1.1952  -1.1940  -1.1936  -1.1847  -1.1797  -1.1682
    -1.1672  -1.1602  -1.1597  -1.1475  -1.1441  -1.1375  -1.1333  -1.0976
    -1.0935  -1.0891  -1.0878  -1.0872  -1.0809  -1.0487  -1.0325  -1.0305
    -1.0301  -1.0282  -1.0273  -1.0208  -1.0175  -1.0054  -0.9982  -0.9698
    -0.9634  -0.9618  -0.9587  -0.9390  -0.9381  -0.9289  -0.8999  -0.8918
    -0.8648  -0.8629  -0.8364  -0.8358  -0.8326  -0.8321  -0.8305  -0.8261
    -0.8218  -0.8192  -0.8174  -0.8162  -0.7855  -0.7846  -0.7689  -0.7636
    -0.7610  -0.7606  -0.7597  -0.7425  -0.7408  -0.4663  -0.4541  -0.4014
    -0.3822  -0.3587  -0.1990  -0.1341  -0.1328  -0.0960   0.1840   0.1903
     0.5125   0.5253   0.6138   0.6152   0.6540   0.6584   0.7965   0.8084
     0.9232   0.9256   1.0161   1.6102   1.6287   1.6296   1.6634   1.6742
     1.7096   1.7323   1.7972   1.8060   2.0045   2.0079   2.2410   2.3165
     2.3282   2.3377   2.7087   2.7278   2.7904   2.7935   2.7986   2.8008
     2.9502   2.9506   2.9896   3.0924   3.1027   3.3245   3.3331   3.4595
     3.4857   3.4916   3.7559   3.7646   3.8687   3.8912   3.8921   3.9294
     3.9733   4.0752   4.0801   4.3146   4.3156   4.3966   4.4077   4.5205
     4.5301   4.5442   4.5652   4.6774   5.0004   5.3294   5.3616   5.4510
     5.4576   5.5148   5.6375   5.6435   5.6766   5.7015   5.7446   5.7533
     5.7650   5.8072   5.8080   5.8523   6.0266   6.0720   6.1007   6.1187
     6.1287   6.1434   6.1516   6.1527   6.1598   6.1623   6.1953   6.2321

     the Fermi energy is     0.8751 ev

!    total energy              =   -7425.29345436 Ry
     Harris-Foulkes estimate   =   -7425.29345437 Ry
     estimated scf accuracy    <          6.6E-09 Ry

     The total energy is the sum of the following terms:

     one-electron contribution =  -48751.87536177 Ry
     hartree contribution      =   24926.95045250 Ry
     xc contribution           =   -3604.21904466 Ry
     ewald contribution        =   20003.85318275 Ry
     smearing contrib. (-TS)   =      -0.00268318 Ry

     convergence has been achieved in  25 iterations

     Writing output data file 6510990.save

     init_run     :    139.48s CPU    146.20s WALL (       1 calls)
     electrons    :   7328.24s CPU   7626.06s WALL (       1 calls)

     Called by init_run:
     wfcinit      :    111.35s CPU    117.19s WALL (       1 calls)
     potinit      :      6.91s CPU      7.29s WALL (       1 calls)

     Called by electrons:
     c_bands      :   6139.00s CPU   6374.89s WALL (      26 calls)
     sum_band     :    839.20s CPU    889.44s WALL (      26 calls)
     v_of_rho     :     91.63s CPU     99.93s WALL (      26 calls)
     newd         :    268.91s CPU    272.03s WALL (      26 calls)
     mix_rho      :      2.50s CPU      2.80s WALL (      26 calls)
     vdW_energy   :      6.81s CPU      7.24s WALL (      26 calls)
     vdW_ffts     :     47.52s CPU     51.84s WALL (      52 calls)
     vdW_v        :     11.34s CPU     11.96s WALL (      26 calls)

     Called by c_bands:
     init_us_2    :      9.91s CPU     10.16s WALL (     318 calls)
     cegterg      :   5957.56s CPU   6189.60s WALL (     156 calls)

     Called by *egterg:
     h_psi        :   2297.45s CPU   2504.02s WALL (     784 calls)
     s_psi        :    322.36s CPU    323.51s WALL (     784 calls)
     g_psi        :      4.20s CPU      4.19s WALL (     622 calls)
     cdiaghg      :   1370.12s CPU   1372.25s WALL (     772 calls)

     Called by h_psi:
     add_vuspsi   :    322.19s CPU    323.51s WALL (     784 calls)

     General routines
     calbec       :    802.30s CPU    803.73s WALL (     940 calls)
     fft          :    176.88s CPU    184.94s WALL (    1716 calls)
     ffts         :      1.36s CPU      1.61s WALL (      52 calls)
     fftw         :   1558.42s CPU   1791.70s WALL (  423094 calls)
     interpolate  :      3.21s CPU      3.81s WALL (      52 calls)
     davcio       :      0.00s CPU      0.13s WALL (       6 calls)

     Parallel routines
     fft_scatter  :   1246.33s CPU   1432.91s WALL (  424862 calls)

     PWSCF        :     2h 4m CPU        2h 9m WALL


   This run was terminated on:  21:17: 7  23Jun2015            

=------------------------------------------------------------------------------=
   JOB DONE.
=------------------------------------------------------------------------------=
