
     Program PWSCF v.5.1.2 starts on 27Jun2015 at  8:19:47 

     This program is part of the open-source Quantum ESPRESSO suite
     for quantum simulation of materials; please cite
         "P. Giannozzi et al., J. Phys.:Condens. Matter 21 395502 (2009);
          URL http://www.quantum-espresso.org", 
     in publications or presentations arising from this work. More details at
     http://www.quantum-espresso.org/quote

     Parallel version (MPI), running on    32 processors
     R & G space division:  proc/nbgrp/npool/nimage =      32
     Reading input from top.O1.Au62.d.3.4.phi.45.psi.180.in
Warning: card &IONS ignored
Warning: card / ignored
Warning: card &CELL ignored
Warning: card / ignored

     Current dimensions of program PWSCF are:
     Max number of different atomic species (ntypx) = 10
     Max number of k-points (npk) =  40000
     Max angular momentum in pseudopotentials (lmaxx) =  3

     IMPORTANT: XC functional enforced from input :
     Exchange-correlation      = VDW-DF ( 1  4  4  0 1 0)
     Any further DFT definition will be discarded
     Please, verify this is what you really want


     Subspace diagonalization in iterative solution of the eigenvalue problem:
     a serial algorithm will be used


     Parallelization info
     --------------------
     sticks:   dense  smooth     PW     G-vecs:    dense   smooth      PW
     Min         578     289     74               118518    41891    5486
     Max         579     290     75               118533    41932    5497
     Sum       18505    9265   2385              3792731  1341081  175711


     Title: 
     top.O1.Au62.d.3.4.phi.45.psi.180                                           


     bravais-lattice index     =            8
     lattice parameter (alat)  =      24.1233  a.u.
     unit-cell volume          =   28076.2361 (a.u.)^3
     number of atoms/cell      =           75
     number of atomic types    =            3
     number of electrons       =       800.00
     number of Kohn-Sham states=          480
     kinetic-energy cutoff     =      50.0000  Ry
     charge density cutoff     =     400.0000  Ry
     convergence threshold     =      1.0E-08
     mixing beta               =       0.7000
     number of iterations used =            8  plain     mixing
     Exchange-correlation      = VDW-DF ( 1  4  4  0 1 0)

     celldm(1)=  24.123277  celldm(2)=   1.000000  celldm(3)=   2.000000
     celldm(4)=   0.000000  celldm(5)=   0.000000  celldm(6)=   0.000000

     crystal axes: (cart. coord. in units of alat)
               a(1) = (   1.000000   0.000000   0.000000 )  
               a(2) = (   0.000000   1.000000   0.000000 )  
               a(3) = (   0.000000   0.000000   2.000000 )  

     reciprocal axes: (cart. coord. in units 2 pi/alat)
               b(1) = (  1.000000  0.000000  0.000000 )  
               b(2) = (  0.000000  1.000000  0.000000 )  
               b(3) = (  0.000000  0.000000  0.500000 )  


     PseudoPot. # 1 for Au read from file:
     /home/scc/andrejb/qe/pseudo/Au.pbe-nd-van.UPF
     MD5 check sum: 458681b50f36d87ef23c61b04bba420a
     Pseudo is Ultrasoft + core correction, Zval = 11.0
     Generated by new atomic code, or converted to UPF format
     Using radial grid of  985 points,  3 beta functions with: 
                l(1) =   1
                l(2) =   2
                l(3) =   2
     Q(r) pseudized with  8 coefficients,  rinner =    1.100   1.100   1.100
                                                       1.100   1.100

     PseudoPot. # 2 for H  read from file:
     /home/scc/andrejb/qe/pseudo/H.pbe-van_ak.UPF
     MD5 check sum: 403db7282739603aa925980fa9b8608d
     Pseudo is Ultrasoft, Zval =  1.0
     Generated by new atomic code, or converted to UPF format
     Using radial grid of  615 points,  1 beta functions with: 
                l(1) =   0
     Q(r) pseudized with  8 coefficients,  rinner =    0.800

     PseudoPot. # 3 for O  read from file:
     /home/scc/andrejb/qe/pseudo/O.pbe-van_ak.UPF
     MD5 check sum: 4b8c549914a63cae506c6ff22b5af4fe
     Pseudo is Ultrasoft, Zval =  6.0
     Generated by new atomic code, or converted to UPF format
     Using radial grid of  737 points,  4 beta functions with: 
                l(1) =   0
                l(2) =   0
                l(3) =   1
                l(4) =   1
     Q(r) pseudized with  8 coefficients,  rinner =    0.800   0.800   0.800


     vdW kernel table read from file vdW_kernel_table
     MD5 check sum: 48e77a2e26edf626eeb0eaa751ad5cac

     atomic species   valence    mass     pseudopotential
        Au            11.00   196.96657     Au( 1.00)
        H              1.00     1.01000     H ( 1.00)
        O              6.00    16.00000     O ( 1.00)

     No symmetry found



   Cartesian axes

     site n.     atom                  positions (alat units)
         1           O   tau(   1) = (   0.4998324   0.3332216   0.7656616  )
         2           H   tau(   2) = (   0.4942419   0.3942089   0.7201677  )
         3           H   tau(   3) = (   0.5052408   0.2740707   0.7178040  )
         4           Au  tau(   4) = (   0.0000000   0.0000000   0.0000000  )
         5           Au  tau(   5) = (   0.3332217   0.0000000   0.0000000  )
         6           Au  tau(   6) = (   0.6664435   0.0000000   0.0000000  )
         7           Au  tau(   7) = (   0.1666109   0.1666109   0.0000000  )
         8           Au  tau(   8) = (   0.4998326   0.1666109   0.0000000  )
         9           Au  tau(   9) = (   0.8330542   0.1666109   0.0000000  )
        10           Au  tau(  10) = (   0.0000000   0.3332217   0.0000000  )
        11           Au  tau(  11) = (   0.3332217   0.3332217   0.0000000  )
        12           Au  tau(  12) = (   0.6664435   0.3332217   0.0000000  )
        13           Au  tau(  13) = (   0.1666109   0.4998326   0.0000000  )
        14           Au  tau(  14) = (   0.4998326   0.4998326   0.0000000  )
        15           Au  tau(  15) = (   0.8330542   0.4998326   0.0000000  )
        16           Au  tau(  16) = (   0.0000000   0.6664435   0.0000000  )
        17           Au  tau(  17) = (   0.3332217   0.6664435   0.0000000  )
        18           Au  tau(  18) = (   0.6664435   0.6664435   0.0000000  )
        19           Au  tau(  19) = (   0.1666109   0.8330542   0.0000000  )
        20           Au  tau(  20) = (   0.4998326   0.8330542   0.0000000  )
        21           Au  tau(  21) = (   0.8330542   0.8330542   0.0000000  )
        22           Au  tau(  22) = (   0.1666109   0.0000000   0.1666109  )
        23           Au  tau(  23) = (   0.4998326   0.0000000   0.1666109  )
        24           Au  tau(  24) = (   0.8330542   0.0000000   0.1666109  )
        25           Au  tau(  25) = (   0.0000000   0.1666109   0.1666109  )
        26           Au  tau(  26) = (   0.3332217   0.1666109   0.1666109  )
        27           Au  tau(  27) = (   0.6664435   0.1666109   0.1666109  )
        28           Au  tau(  28) = (   0.1666109   0.3332217   0.1666109  )
        29           Au  tau(  29) = (   0.4998326   0.3332217   0.1666109  )
        30           Au  tau(  30) = (   0.8330542   0.3332217   0.1666109  )
        31           Au  tau(  31) = (   0.0000000   0.4998326   0.1666109  )
        32           Au  tau(  32) = (   0.3332217   0.4998326   0.1666109  )
        33           Au  tau(  33) = (   0.6664435   0.4998326   0.1666109  )
        34           Au  tau(  34) = (   0.1666109   0.6664435   0.1666109  )
        35           Au  tau(  35) = (   0.4998326   0.6664435   0.1666109  )
        36           Au  tau(  36) = (   0.8330542   0.6664435   0.1666109  )
        37           Au  tau(  37) = (   0.0000000   0.8330542   0.1666109  )
        38           Au  tau(  38) = (   0.3332217   0.8330542   0.1666109  )
        39           Au  tau(  39) = (   0.6664435   0.8330542   0.1666109  )
        40           Au  tau(  40) = (  -0.0000182  -0.0000182   0.3335478  )
        41           Au  tau(  41) = (   0.3332215  -0.0000181   0.3335472  )
        42           Au  tau(  42) = (   0.6664447  -0.0000183   0.3335481  )
        43           Au  tau(  43) = (  -0.0000181   0.3332215   0.3335472  )
        44           Au  tau(  44) = (   0.3332215   0.3332215   0.3335468  )
        45           Au  tau(  45) = (   0.6664445   0.3332215   0.3335478  )
        46           Au  tau(  46) = (  -0.0000183   0.6664447   0.3335481  )
        47           Au  tau(  47) = (   0.3332215   0.6664445   0.3335478  )
        48           Au  tau(  48) = (   0.6664446   0.6664446   0.3335486  )
        49           Au  tau(  49) = (   0.1666097   0.1666097   0.3335483  )
        50           Au  tau(  50) = (   0.4998320   0.1666098   0.3335477  )
        51           Au  tau(  51) = (   0.8330732   0.1666096   0.3335481  )
        52           Au  tau(  52) = (   0.1666098   0.4998320   0.3335477  )
        53           Au  tau(  53) = (   0.4998321   0.4998321   0.3335470  )
        54           Au  tau(  54) = (   0.8330730   0.4998322   0.3335474  )
        55           Au  tau(  55) = (   0.1666096   0.8330732   0.3335481  )
        56           Au  tau(  56) = (   0.4998322   0.8330730   0.3335474  )
        57           Au  tau(  57) = (   0.8330731   0.8330731   0.3335478  )
        58           Au  tau(  58) = (   0.1666104  -0.0000111   0.4993095  )
        59           Au  tau(  59) = (   0.4998323  -0.0000112   0.4993099  )
        60           Au  tau(  60) = (   0.8330661  -0.0000111   0.4993009  )
        61           Au  tau(  61) = (  -0.0000111   0.1666104   0.4993095  )
        62           Au  tau(  62) = (   0.3332214   0.1666106   0.4993185  )
        63           Au  tau(  63) = (   0.6664437   0.1666106   0.4993187  )
        64           Au  tau(  64) = (   0.1666106   0.3332214   0.4993185  )
        65           Au  tau(  65) = (   0.4998324   0.3332216   0.4993185  )
        66           Au  tau(  66) = (   0.8330659   0.3332215   0.4993103  )
        67           Au  tau(  67) = (  -0.0000112   0.4998323   0.4993099  )
        68           Au  tau(  68) = (   0.3332216   0.4998324   0.4993185  )
        69           Au  tau(  69) = (   0.6664436   0.4998325   0.4993187  )
        70           Au  tau(  70) = (   0.1666106   0.6664437   0.4993187  )
        71           Au  tau(  71) = (   0.4998325   0.6664436   0.4993187  )
        72           Au  tau(  72) = (   0.8330658   0.6664438   0.4993102  )
        73           Au  tau(  73) = (  -0.0000111   0.8330661   0.4993009  )
        74           Au  tau(  74) = (   0.3332215   0.8330659   0.4993103  )
        75           Au  tau(  75) = (   0.6664438   0.8330658   0.4993102  )

     number of k points=     6  Marzari-Vanderbilt smearing, width (Ry)=  0.0200
                       cart. coord. in units 2pi/alat
        k(    1) = (   0.2500000   0.2500000   0.0833333), wk =   0.3333333
        k(    2) = (   0.2500000   0.2500000  -0.2500000), wk =   0.3333333
        k(    3) = (  -0.2500000  -0.2500000   0.0833333), wk =   0.3333333
        k(    4) = (  -0.2500000   0.2500000  -0.0833333), wk =   0.3333333
        k(    5) = (   0.2500000  -0.2500000  -0.0833333), wk =   0.3333333
        k(    6) = (  -0.2500000   0.2500000   0.2500000), wk =   0.3333333

     Dense  grid:  3792731 G-vectors     FFT dimensions: ( 160, 160, 320)

     Smooth grid:  1341081 G-vectors     FFT dimensions: ( 120, 120, 225)

     Largest allocated arrays     est. size (Mb)     dimensions
        Kohn-Sham Wavefunctions        38.58 Mb     (    5267,  480)
        NL pseudopotentials            76.03 Mb     (    5267,  946)
        Each V/rho on FFT grid          3.91 Mb     (  256000)
        Each G-vector array             0.90 Mb     (  118520)
        G-vector shells                 0.08 Mb     (   10286)
     Largest temporary arrays     est. size (Mb)     dimensions
        Auxiliary wavefunctions       154.31 Mb     (    5267, 1920)
        Each subspace H/S matrix       56.25 Mb     (    1920, 1920)
        Each <psi_i|beta_j> matrix      6.93 Mb     (     946,  480)
        Arrays for rho mixing          31.25 Mb     (  256000,    8)

     Initial potential from superposition of free atoms
     Check: negative starting charge=   -1.945213

     starting charge  799.16392, renormalised to  800.00000

     negative rho (up, down):  1.947E+00 0.000E+00


     ************************************************************************
     *
     * You are using vdW-DF for exchange-correlation in this calculation.
     * Please cite the following three references that made this development
     * possible:
     *
     *   M. Dion, H. Rydberg, E. Schroder, D. C. Langreth, and
     *   B. I. Lundqvist, Phys. Rev. Lett. 92, 246401 (2004).
     *
     *   T. Thonhauser, V. R. Cooper, S. Li, A. Puzder, P. Hyldgaard, and
     *   D. C. Langreth, Phys. Rev. B 76, 125112 (2007).
     *
     *   G. Roman-Perez and J. M. Soler, Phys. Rev. Lett. 103, 096102 (2009).
     *
     *
     * If you are using vdW-DF2, please also cite:
     *
     *   K. Lee, E. D. Murray, L. Kong, B. I. Lundqvist, and
     *   D. C. Langreth, Phys. Rev. B 82, 081101(R) (2010).
     *
     *
     * If you are calculating the stress with vdW-DF, please also cite:
     *
     *   R. Sabatini, E. Kucukbenli, B. Kolb, T. Thonhauser, and
     *   S. de Gironcoli, J. Phys.: Condens. Matter 24, 424209 (2012).
     *
     ************************************************************************

     Carrying out vdW-DF run using the following parameters:

     Nqs =      20    Nr_points =    1024   r_max =   100.000
     q_mesh =
               0.00001000     0.04494208     0.09755937     0.15916263
               0.23128650     0.31572767     0.41458969     0.53033537
               0.66584808     0.82450364     1.01025438     1.22772762
               1.48234092     1.78043706     2.12944203     2.53805004
               3.01644009     3.57652955     4.23227104     5.00000000

     Gradients computed in reciprocal space

     ************************************************************************


     Starting wfc are  654 randomized atomic wfcs

     total cpu time spent up to now is      126.7 secs

     Self-consistent Calculation

     iteration #  1     ecut=    50.00 Ry     beta=0.70
     Davidson diagonalization with overlap
     ethr =  1.00E-02,  avg # of iterations =  3.0

     Threshold (ethr) on eigenvalues was too large:
     Diagonalizing with lowered threshold

     Davidson diagonalization with overlap
     ethr =  4.20E-04,  avg # of iterations =  2.0

     negative rho (up, down):  1.947E+00 0.000E+00

     total cpu time spent up to now is      554.1 secs

     total energy              =   -7423.04312074 Ry
     Harris-Foulkes estimate   =   -7426.06629067 Ry
     estimated scf accuracy    <       3.73830605 Ry

     iteration #  2     ecut=    50.00 Ry     beta=0.70
     Davidson diagonalization with overlap
     ethr =  4.67E-04,  avg # of iterations = 11.3

     negative rho (up, down):  1.943E+00 0.000E+00

     total cpu time spent up to now is     1188.5 secs

     total energy              =   -7415.29937620 Ry
     Harris-Foulkes estimate   =   -7432.59364389 Ry
     estimated scf accuracy    <      89.82209523 Ry

     iteration #  3     ecut=    50.00 Ry     beta=0.70
     Davidson diagonalization with overlap
     ethr =  4.67E-04,  avg # of iterations =  6.0

     negative rho (up, down):  1.953E+00 0.000E+00

     total cpu time spent up to now is     1623.6 secs

     total energy              =   -7423.98102334 Ry
     Harris-Foulkes estimate   =   -7425.93712928 Ry
     estimated scf accuracy    <       8.55862080 Ry

     iteration #  4     ecut=    50.00 Ry     beta=0.70
     Davidson diagonalization with overlap
     ethr =  4.67E-04,  avg # of iterations =  7.3

     negative rho (up, down):  1.955E+00 0.000E+00

     total cpu time spent up to now is     1975.3 secs

     total energy              =   -7424.63224871 Ry
     Harris-Foulkes estimate   =   -7425.83832743 Ry
     estimated scf accuracy    <       8.01545911 Ry

     iteration #  5     ecut=    50.00 Ry     beta=0.70
     Davidson diagonalization with overlap
     ethr =  4.67E-04,  avg # of iterations =  6.0

     negative rho (up, down):  1.963E+00 0.000E+00

     total cpu time spent up to now is     2259.9 secs

     total energy              =   -7425.14860477 Ry
     Harris-Foulkes estimate   =   -7425.53446124 Ry
     estimated scf accuracy    <       2.60401084 Ry

     iteration #  6     ecut=    50.00 Ry     beta=0.70
     Davidson diagonalization with overlap
     ethr =  3.26E-04,  avg # of iterations =  3.0

     negative rho (up, down):  1.967E+00 0.000E+00

     total cpu time spent up to now is     2489.7 secs

     total energy              =   -7425.28130973 Ry
     Harris-Foulkes estimate   =   -7425.33342985 Ry
     estimated scf accuracy    <       0.17371191 Ry

     iteration #  7     ecut=    50.00 Ry     beta=0.70
     Davidson diagonalization with overlap
     ethr =  2.17E-05,  avg # of iterations = 10.2

     negative rho (up, down):  1.970E+00 0.000E+00

     total cpu time spent up to now is     2826.3 secs

     total energy              =   -7425.28126027 Ry
     Harris-Foulkes estimate   =   -7425.33273837 Ry
     estimated scf accuracy    <       0.27505480 Ry

     iteration #  8     ecut=    50.00 Ry     beta=0.70
     Davidson diagonalization with overlap
     ethr =  2.17E-05,  avg # of iterations =  3.0

     negative rho (up, down):  1.971E+00 0.000E+00

     total cpu time spent up to now is     3059.1 secs

     total energy              =   -7425.29277445 Ry
     Harris-Foulkes estimate   =   -7425.31013056 Ry
     estimated scf accuracy    <       0.07006059 Ry

     iteration #  9     ecut=    50.00 Ry     beta=0.70
     Davidson diagonalization with overlap
     ethr =  8.76E-06,  avg # of iterations =  4.2

     negative rho (up, down):  1.972E+00 0.000E+00

     total cpu time spent up to now is     3315.4 secs

     total energy              =   -7425.29229724 Ry
     Harris-Foulkes estimate   =   -7425.30260896 Ry
     estimated scf accuracy    <       0.03571874 Ry

     iteration # 10     ecut=    50.00 Ry     beta=0.70
     Davidson diagonalization with overlap
     ethr =  4.46E-06,  avg # of iterations = 10.7

     negative rho (up, down):  1.973E+00 0.000E+00

     total cpu time spent up to now is     3640.5 secs

     total energy              =   -7425.29291226 Ry
     Harris-Foulkes estimate   =   -7425.29637975 Ry
     estimated scf accuracy    <       0.01158857 Ry

     iteration # 11     ecut=    50.00 Ry     beta=0.70
     Davidson diagonalization with overlap
     c_bands:  1 eigenvalues not converged
     ethr =  1.45E-06,  avg # of iterations =  6.7

     negative rho (up, down):  1.974E+00 0.000E+00

     total cpu time spent up to now is     3934.8 secs

     total energy              =   -7425.29290458 Ry
     Harris-Foulkes estimate   =   -7425.29445372 Ry
     estimated scf accuracy    <       0.00574946 Ry

     iteration # 12     ecut=    50.00 Ry     beta=0.70
     Davidson diagonalization with overlap
     ethr =  7.19E-07,  avg # of iterations =  2.8

     negative rho (up, down):  1.974E+00 0.000E+00

     total cpu time spent up to now is     4158.7 secs

     total energy              =   -7425.29220434 Ry
     Harris-Foulkes estimate   =   -7425.29339877 Ry
     estimated scf accuracy    <       0.00185029 Ry

     iteration # 13     ecut=    50.00 Ry     beta=0.70
     Davidson diagonalization with overlap
     ethr =  2.31E-07,  avg # of iterations =  6.7

     negative rho (up, down):  1.974E+00 0.000E+00

     total cpu time spent up to now is     4511.0 secs

     total energy              =   -7425.29167255 Ry
     Harris-Foulkes estimate   =   -7425.29382179 Ry
     estimated scf accuracy    <       0.01019787 Ry

     iteration # 14     ecut=    50.00 Ry     beta=0.70
     Davidson diagonalization with overlap
     ethr =  2.31E-07,  avg # of iterations =  3.0

     negative rho (up, down):  1.974E+00 0.000E+00

     total cpu time spent up to now is     4793.3 secs

     total energy              =   -7425.29260821 Ry
     Harris-Foulkes estimate   =   -7425.29288356 Ry
     estimated scf accuracy    <       0.00118075 Ry

     iteration # 15     ecut=    50.00 Ry     beta=0.70
     Davidson diagonalization with overlap
     ethr =  1.48E-07,  avg # of iterations =  2.0

     negative rho (up, down):  1.974E+00 0.000E+00

     total cpu time spent up to now is     5035.4 secs

     total energy              =   -7425.29267037 Ry
     Harris-Foulkes estimate   =   -7425.29282828 Ry
     estimated scf accuracy    <       0.00079010 Ry

     iteration # 16     ecut=    50.00 Ry     beta=0.70
     Davidson diagonalization with overlap
     ethr =  9.88E-08,  avg # of iterations =  1.0

     negative rho (up, down):  1.974E+00 0.000E+00

     total cpu time spent up to now is     5253.8 secs

     total energy              =   -7425.29270666 Ry
     Harris-Foulkes estimate   =   -7425.29284415 Ry
     estimated scf accuracy    <       0.00112211 Ry

     iteration # 17     ecut=    50.00 Ry     beta=0.70
     Davidson diagonalization with overlap
     ethr =  9.88E-08,  avg # of iterations =  2.0

     negative rho (up, down):  1.974E+00 0.000E+00

     total cpu time spent up to now is     5482.5 secs

     total energy              =   -7425.29276653 Ry
     Harris-Foulkes estimate   =   -7425.29278150 Ry
     estimated scf accuracy    <       0.00004664 Ry

     iteration # 18     ecut=    50.00 Ry     beta=0.70
     Davidson diagonalization with overlap
     ethr =  5.83E-09,  avg # of iterations =  2.0

     negative rho (up, down):  1.974E+00 0.000E+00

     total cpu time spent up to now is     5712.6 secs

     total energy              =   -7425.29277252 Ry
     Harris-Foulkes estimate   =   -7425.29277903 Ry
     estimated scf accuracy    <       0.00003049 Ry

     iteration # 19     ecut=    50.00 Ry     beta=0.70
     Davidson diagonalization with overlap
     ethr =  3.81E-09,  avg # of iterations =  2.0

     negative rho (up, down):  1.974E+00 0.000E+00

     total cpu time spent up to now is     5940.5 secs

     total energy              =   -7425.29277469 Ry
     Harris-Foulkes estimate   =   -7425.29277806 Ry
     estimated scf accuracy    <       0.00001434 Ry

     iteration # 20     ecut=    50.00 Ry     beta=0.70
     Davidson diagonalization with overlap
     ethr =  1.79E-09,  avg # of iterations =  2.0

     negative rho (up, down):  1.974E+00 0.000E+00

     total cpu time spent up to now is     6167.7 secs

     total energy              =   -7425.29277626 Ry
     Harris-Foulkes estimate   =   -7425.29277701 Ry
     estimated scf accuracy    <       0.00000265 Ry

     iteration # 21     ecut=    50.00 Ry     beta=0.70
     Davidson diagonalization with overlap
     ethr =  3.31E-10,  avg # of iterations =  2.0

     negative rho (up, down):  1.974E+00 0.000E+00

     total cpu time spent up to now is     6408.8 secs

     total energy              =   -7425.29277659 Ry
     Harris-Foulkes estimate   =   -7425.29277699 Ry
     estimated scf accuracy    <       0.00000174 Ry

     iteration # 22     ecut=    50.00 Ry     beta=0.70
     Davidson diagonalization with overlap
     ethr =  2.18E-10,  avg # of iterations =  3.0

     negative rho (up, down):  1.974E+00 0.000E+00

     total cpu time spent up to now is     6642.7 secs

     total energy              =   -7425.29277687 Ry
     Harris-Foulkes estimate   =   -7425.29277692 Ry
     estimated scf accuracy    <       0.00000038 Ry

     iteration # 23     ecut=    50.00 Ry     beta=0.70
     Davidson diagonalization with overlap
     ethr =  4.70E-11,  avg # of iterations =  3.0

     negative rho (up, down):  1.974E+00 0.000E+00

     total cpu time spent up to now is     6917.0 secs

     total energy              =   -7425.29277689 Ry
     Harris-Foulkes estimate   =   -7425.29277695 Ry
     estimated scf accuracy    <       0.00000016 Ry

     iteration # 24     ecut=    50.00 Ry     beta=0.70
     Davidson diagonalization with overlap
     ethr =  1.97E-11,  avg # of iterations =  2.0

     negative rho (up, down):  1.974E+00 0.000E+00

     total cpu time spent up to now is     7155.3 secs

     total energy              =   -7425.29277692 Ry
     Harris-Foulkes estimate   =   -7425.29277694 Ry
     estimated scf accuracy    <       0.00000023 Ry

     iteration # 25     ecut=    50.00 Ry     beta=0.70
     Davidson diagonalization with overlap
     ethr =  1.97E-11,  avg # of iterations =  2.0

     negative rho (up, down):  1.974E+00 0.000E+00

     total cpu time spent up to now is     7395.2 secs

     total energy              =   -7425.29277694 Ry
     Harris-Foulkes estimate   =   -7425.29277696 Ry
     estimated scf accuracy    <       0.00000011 Ry

     iteration # 26     ecut=    50.00 Ry     beta=0.70
     Davidson diagonalization with overlap
     ethr =  1.35E-11,  avg # of iterations =  2.0

     negative rho (up, down):  1.974E+00 0.000E+00

     total cpu time spent up to now is     7614.6 secs

     total energy              =   -7425.29277696 Ry
     Harris-Foulkes estimate   =   -7425.29277696 Ry
     estimated scf accuracy    <       0.00000007 Ry

     iteration # 27     ecut=    50.00 Ry     beta=0.70
     Davidson diagonalization with overlap
     ethr =  8.56E-12,  avg # of iterations =  1.0

     negative rho (up, down):  1.974E+00 0.000E+00

     total cpu time spent up to now is     7833.6 secs

     total energy              =   -7425.29277696 Ry
     Harris-Foulkes estimate   =   -7425.29277697 Ry
     estimated scf accuracy    <       0.00000004 Ry

     iteration # 28     ecut=    50.00 Ry     beta=0.70
     Davidson diagonalization with overlap
     ethr =  4.77E-12,  avg # of iterations =  2.0

     negative rho (up, down):  1.974E+00 0.000E+00

     total cpu time spent up to now is     8064.2 secs

     total energy              =   -7425.29277697 Ry
     Harris-Foulkes estimate   =   -7425.29277697 Ry
     estimated scf accuracy    <       0.00000001 Ry

     iteration # 29     ecut=    50.00 Ry     beta=0.70
     Davidson diagonalization with overlap
     ethr =  1.63E-12,  avg # of iterations =  2.0

     negative rho (up, down):  1.974E+00 0.000E+00

     total cpu time spent up to now is     8285.2 secs

     End of self-consistent calculation

          k = 0.2500 0.2500 0.0833 (167653 PWs)   bands (ev):

   -19.2003  -7.0255  -6.9284  -6.4004  -6.3990  -5.9701  -5.5622  -5.4685
    -5.4672  -5.2718  -5.2717  -5.1565  -5.1531  -5.0752  -5.0528  -4.9794
    -4.8946  -4.8906  -4.8524  -4.8514  -4.6913  -4.6747  -4.6733  -4.6725
    -4.6655  -4.6104  -4.6101  -4.5987  -4.5978  -4.5612  -4.5504  -4.5479
    -4.5068  -4.5062  -4.4730  -4.4717  -4.4211  -4.4191  -4.4098  -4.4079
    -4.4021  -4.3893  -4.3890  -4.3489  -4.3301  -4.3297  -4.3226  -4.3223
    -4.2910  -4.2420  -4.2259  -4.2251  -4.2248  -4.2210  -4.2139  -4.2083
    -4.2079  -4.2073  -4.1447  -4.1417  -4.0949  -4.0920  -4.0802  -4.0550
    -4.0538  -4.0364  -4.0314  -4.0306  -4.0266  -4.0240  -3.9750  -3.9750
    -3.9624  -3.9614  -3.8589  -3.8559  -3.8521  -3.8496  -3.8131  -3.8062
    -3.7887  -3.7605  -3.7598  -3.7319  -3.7302  -3.7106  -3.7088  -3.6964
    -3.6948  -3.6409  -3.6400  -3.6238  -3.6060  -3.5957  -3.5940  -3.5930
    -3.5921  -3.5661  -3.5645  -3.5314  -3.5286  -3.5075  -3.5056  -3.4739
    -3.4723  -3.4550  -3.4276  -3.4272  -3.3909  -3.3891  -3.3738  -3.3507
    -3.3457  -3.3431  -3.3313  -3.3302  -3.3261  -3.3139  -3.2893  -3.2764
    -3.2373  -3.2353  -3.2286  -3.2192  -3.2181  -3.2123  -3.1932  -3.1929
    -3.1719  -3.1711  -3.1705  -3.1443  -3.1442  -3.1367  -3.1342  -3.1317
    -3.0973  -3.0941  -3.0585  -3.0575  -3.0565  -3.0546  -3.0538  -2.9747
    -2.9649  -2.9616  -2.9599  -2.9597  -2.9584  -2.9537  -2.9534  -2.9533
    -2.9529  -2.9436  -2.9357  -2.9194  -2.9163  -2.9149  -2.9114  -2.9005
    -2.8967  -2.8580  -2.8572  -2.8569  -2.8526  -2.8521  -2.8347  -2.8340
    -2.8259  -2.8255  -2.8230  -2.7642  -2.7639  -2.7583  -2.7582  -2.7539
    -2.7510  -2.7246  -2.6659  -2.6648  -2.6643  -2.6620  -2.6510  -2.6491
    -2.6430  -2.6340  -2.6328  -2.5973  -2.5954  -2.5883  -2.5880  -2.5859
    -2.5857  -2.5472  -2.5464  -2.5371  -2.5367  -2.5352  -2.5342  -2.4916
    -2.4750  -2.4722  -2.4184  -2.4173  -2.4004  -2.3984  -2.3924  -2.3914
    -2.3450  -2.3425  -2.3201  -2.3054  -2.2908  -2.2890  -2.2877  -2.2668
    -2.2661  -2.2567  -2.2386  -2.2026  -2.1996  -2.1867  -2.1836  -2.1833
    -2.1749  -2.1731  -2.1612  -2.1577  -2.1570  -2.1534  -2.1493  -2.1470
    -2.1468  -2.1368  -2.1353  -2.1181  -2.1173  -2.1156  -2.1096  -2.1069
    -2.1056  -2.0835  -2.0819  -2.0706  -2.0694  -2.0633  -2.0628  -2.0253
    -1.9921  -1.9915  -1.9564  -1.9399  -1.9391  -1.9309  -1.9271  -1.9058
    -1.9043  -1.8928  -1.8892  -1.8876  -1.8871  -1.8868  -1.8833  -1.8520
    -1.8519  -1.8515  -1.8063  -1.8057  -1.7674  -1.7648  -1.7186  -1.7183
    -1.7056  -1.6837  -1.6786  -1.6755  -1.6606  -1.6585  -1.6422  -1.6394
    -1.6373  -1.6347  -1.6336  -1.6333  -1.6318  -1.6307  -1.6108  -1.6092
    -1.5976  -1.5824  -1.5645  -1.5642  -1.5389  -1.5364  -1.5336  -1.5329
    -1.5300  -1.5268  -1.5068  -1.5042  -1.4907  -1.4894  -1.4773  -1.4679
    -1.4544  -1.4529  -1.4238  -1.4225  -1.4152  -1.4138  -1.3801  -1.3783
    -1.3708  -1.3697  -1.3624  -1.3617  -1.3407  -1.3392  -1.3285  -1.3225
    -1.3207  -1.3105  -1.3086  -1.3066  -1.3064  -1.2931  -1.2847  -1.2819
    -1.2742  -1.2738  -1.2642  -1.2591  -1.2573  -1.2507  -1.2193  -1.2103
    -1.2046  -1.2045  -1.2016  -1.2003  -1.1905  -1.1622  -1.1448  -1.1437
    -1.1436  -1.1424  -1.1392  -1.1345  -1.1310  -1.1214  -1.1186  -1.0827
    -1.0822  -1.0754  -1.0748  -1.0528  -1.0522  -1.0426  -1.0133  -1.0051
    -0.9788  -0.9770  -0.9500  -0.9496  -0.9468  -0.9464  -0.9439  -0.9400
    -0.9357  -0.9355  -0.9316  -0.9303  -0.8991  -0.8984  -0.8802  -0.8776
    -0.8757  -0.8743  -0.8726  -0.8718  -0.8545  -0.5803  -0.5672  -0.5102
    -0.5094  -0.4731  -0.3124  -0.2478  -0.2466  -0.2133   0.0720   0.0727
     0.4029   0.4042   0.5005   0.5011   0.5411   0.5434   0.6867   0.6870
     0.8093   0.8119   0.9017   1.4971   1.5148   1.5158   1.5521   1.5613
     1.6056   1.6098   1.6851   1.6864   1.8917   1.8929   2.1289   2.2058
     2.2100   2.2238   2.6039   2.6085   2.6777   2.6784   2.6847   2.6865
     2.8365   2.8375   2.8906   2.9812   2.9839   3.2135   3.2141   3.3465
     3.3734   3.3752   3.6458   3.6475   3.7587   3.7776   3.7781   3.8504
     3.8683   3.9619   3.9663   4.1996   4.2031   4.2908   4.2924   4.4130
     4.4182   4.4355   4.4432   4.6057   5.2111   5.2538   5.3257   5.3479
     5.3495   5.5245   5.5259   5.5713   5.6237   5.6425   5.6480   5.6913
     5.6947   5.7004   5.7191   5.7399   5.9917   6.0039   6.0132   6.0291
     6.0384   6.0396   6.0444   6.0485   6.1095   6.1351   6.1621   6.1767

          k = 0.2500 0.2500-0.2500 (167588 PWs)   bands (ev):

   -19.2003  -7.0255  -6.9284  -6.4004  -6.3990  -5.9701  -5.5622  -5.4685
    -5.4672  -5.2718  -5.2717  -5.1565  -5.1531  -5.0752  -5.0528  -4.9794
    -4.8946  -4.8906  -4.8524  -4.8514  -4.6913  -4.6747  -4.6733  -4.6725
    -4.6655  -4.6104  -4.6101  -4.5987  -4.5978  -4.5612  -4.5504  -4.5479
    -4.5068  -4.5062  -4.4730  -4.4717  -4.4211  -4.4191  -4.4098  -4.4079
    -4.4021  -4.3893  -4.3890  -4.3490  -4.3301  -4.3297  -4.3226  -4.3223
    -4.2910  -4.2420  -4.2259  -4.2251  -4.2248  -4.2210  -4.2139  -4.2083
    -4.2079  -4.2073  -4.1447  -4.1417  -4.0949  -4.0920  -4.0802  -4.0550
    -4.0538  -4.0364  -4.0314  -4.0306  -4.0266  -4.0240  -3.9750  -3.9750
    -3.9624  -3.9614  -3.8589  -3.8559  -3.8521  -3.8496  -3.8131  -3.8062
    -3.7887  -3.7605  -3.7598  -3.7319  -3.7302  -3.7106  -3.7088  -3.6964
    -3.6948  -3.6409  -3.6400  -3.6238  -3.6061  -3.5957  -3.5940  -3.5930
    -3.5921  -3.5661  -3.5645  -3.5314  -3.5286  -3.5075  -3.5056  -3.4739
    -3.4723  -3.4550  -3.4276  -3.4272  -3.3909  -3.3891  -3.3738  -3.3507
    -3.3457  -3.3431  -3.3313  -3.3302  -3.3261  -3.3139  -3.2893  -3.2764
    -3.2373  -3.2353  -3.2286  -3.2192  -3.2181  -3.2123  -3.1932  -3.1929
    -3.1719  -3.1711  -3.1705  -3.1443  -3.1442  -3.1366  -3.1342  -3.1317
    -3.0973  -3.0941  -3.0585  -3.0575  -3.0565  -3.0546  -3.0538  -2.9747
    -2.9649  -2.9616  -2.9599  -2.9597  -2.9584  -2.9537  -2.9534  -2.9533
    -2.9529  -2.9436  -2.9357  -2.9194  -2.9163  -2.9149  -2.9114  -2.9005
    -2.8967  -2.8580  -2.8572  -2.8569  -2.8526  -2.8521  -2.8347  -2.8340
    -2.8259  -2.8255  -2.8230  -2.7642  -2.7639  -2.7583  -2.7582  -2.7539
    -2.7510  -2.7246  -2.6659  -2.6648  -2.6643  -2.6620  -2.6510  -2.6491
    -2.6430  -2.6339  -2.6328  -2.5973  -2.5954  -2.5883  -2.5880  -2.5859
    -2.5857  -2.5472  -2.5464  -2.5371  -2.5367  -2.5352  -2.5342  -2.4916
    -2.4750  -2.4722  -2.4184  -2.4173  -2.4004  -2.3984  -2.3924  -2.3914
    -2.3450  -2.3425  -2.3201  -2.3054  -2.2908  -2.2890  -2.2877  -2.2668
    -2.2661  -2.2567  -2.2386  -2.2026  -2.1996  -2.1867  -2.1836  -2.1833
    -2.1749  -2.1731  -2.1612  -2.1577  -2.1570  -2.1534  -2.1493  -2.1470
    -2.1468  -2.1368  -2.1353  -2.1181  -2.1173  -2.1156  -2.1096  -2.1069
    -2.1056  -2.0835  -2.0819  -2.0706  -2.0694  -2.0633  -2.0628  -2.0253
    -1.9921  -1.9915  -1.9565  -1.9399  -1.9391  -1.9309  -1.9271  -1.9058
    -1.9043  -1.8928  -1.8892  -1.8876  -1.8871  -1.8868  -1.8833  -1.8520
    -1.8519  -1.8515  -1.8063  -1.8057  -1.7674  -1.7648  -1.7186  -1.7183
    -1.7056  -1.6837  -1.6786  -1.6756  -1.6606  -1.6586  -1.6422  -1.6394
    -1.6373  -1.6347  -1.6336  -1.6333  -1.6318  -1.6307  -1.6108  -1.6092
    -1.5976  -1.5824  -1.5645  -1.5642  -1.5389  -1.5364  -1.5336  -1.5328
    -1.5300  -1.5268  -1.5068  -1.5042  -1.4907  -1.4894  -1.4773  -1.4679
    -1.4544  -1.4529  -1.4238  -1.4225  -1.4152  -1.4138  -1.3801  -1.3783
    -1.3708  -1.3697  -1.3624  -1.3617  -1.3407  -1.3392  -1.3285  -1.3225
    -1.3207  -1.3105  -1.3086  -1.3066  -1.3064  -1.2931  -1.2847  -1.2819
    -1.2741  -1.2738  -1.2642  -1.2591  -1.2573  -1.2507  -1.2193  -1.2103
    -1.2047  -1.2045  -1.2016  -1.2003  -1.1905  -1.1622  -1.1448  -1.1437
    -1.1436  -1.1424  -1.1392  -1.1345  -1.1310  -1.1214  -1.1186  -1.0827
    -1.0822  -1.0754  -1.0748  -1.0528  -1.0522  -1.0426  -1.0133  -1.0051
    -0.9787  -0.9770  -0.9500  -0.9496  -0.9468  -0.9464  -0.9439  -0.9400
    -0.9357  -0.9355  -0.9316  -0.9303  -0.8991  -0.8984  -0.8802  -0.8776
    -0.8757  -0.8743  -0.8726  -0.8718  -0.8545  -0.5803  -0.5672  -0.5102
    -0.5094  -0.4731  -0.3124  -0.2478  -0.2466  -0.2133   0.0720   0.0727
     0.4029   0.4042   0.5005   0.5011   0.5411   0.5434   0.6867   0.6871
     0.8093   0.8119   0.9017   1.4971   1.5148   1.5158   1.5521   1.5613
     1.6056   1.6098   1.6851   1.6864   1.8917   1.8929   2.1289   2.2058
     2.2100   2.2238   2.6039   2.6085   2.6777   2.6784   2.6847   2.6865
     2.8365   2.8375   2.8906   2.9812   2.9839   3.2135   3.2141   3.3465
     3.3734   3.3752   3.6458   3.6475   3.7587   3.7776   3.7781   3.8505
     3.8683   3.9619   3.9663   4.1996   4.2031   4.2908   4.2924   4.4130
     4.4182   4.4355   4.4432   4.6058   5.2084   5.2538   5.3097   5.3474
     5.3495   5.5245   5.5257   5.5713   5.6284   5.6427   5.6535   5.6907
     5.6965   5.6980   5.7389   5.7618   5.9918   6.0043   6.0140   6.0293
     6.0385   6.0396   6.0444   6.0485   6.1137   6.1344   6.1607   6.2520

          k =-0.2500-0.2500 0.0833 (167653 PWs)   bands (ev):

   -19.2003  -7.0255  -6.9284  -6.4004  -6.3990  -5.9701  -5.5622  -5.4685
    -5.4672  -5.2718  -5.2717  -5.1565  -5.1531  -5.0752  -5.0528  -4.9794
    -4.8946  -4.8906  -4.8524  -4.8514  -4.6913  -4.6747  -4.6733  -4.6725
    -4.6655  -4.6104  -4.6101  -4.5987  -4.5978  -4.5612  -4.5504  -4.5479
    -4.5068  -4.5062  -4.4730  -4.4717  -4.4211  -4.4191  -4.4098  -4.4079
    -4.4021  -4.3893  -4.3890  -4.3489  -4.3301  -4.3297  -4.3226  -4.3223
    -4.2910  -4.2420  -4.2259  -4.2251  -4.2248  -4.2210  -4.2139  -4.2083
    -4.2079  -4.2073  -4.1447  -4.1417  -4.0949  -4.0920  -4.0802  -4.0550
    -4.0538  -4.0364  -4.0314  -4.0306  -4.0266  -4.0240  -3.9750  -3.9750
    -3.9624  -3.9614  -3.8589  -3.8559  -3.8521  -3.8496  -3.8131  -3.8062
    -3.7887  -3.7605  -3.7598  -3.7319  -3.7302  -3.7106  -3.7088  -3.6964
    -3.6948  -3.6409  -3.6400  -3.6238  -3.6060  -3.5957  -3.5940  -3.5930
    -3.5921  -3.5661  -3.5645  -3.5314  -3.5286  -3.5075  -3.5056  -3.4739
    -3.4723  -3.4550  -3.4276  -3.4272  -3.3909  -3.3891  -3.3738  -3.3507
    -3.3457  -3.3431  -3.3313  -3.3302  -3.3261  -3.3139  -3.2893  -3.2764
    -3.2373  -3.2353  -3.2286  -3.2192  -3.2181  -3.2123  -3.1932  -3.1929
    -3.1719  -3.1711  -3.1705  -3.1443  -3.1442  -3.1367  -3.1342  -3.1317
    -3.0973  -3.0941  -3.0585  -3.0575  -3.0565  -3.0546  -3.0538  -2.9747
    -2.9649  -2.9616  -2.9599  -2.9597  -2.9584  -2.9537  -2.9534  -2.9533
    -2.9529  -2.9436  -2.9357  -2.9194  -2.9163  -2.9149  -2.9114  -2.9005
    -2.8967  -2.8580  -2.8572  -2.8569  -2.8526  -2.8521  -2.8347  -2.8340
    -2.8259  -2.8255  -2.8230  -2.7642  -2.7639  -2.7583  -2.7582  -2.7539
    -2.7510  -2.7246  -2.6659  -2.6648  -2.6643  -2.6620  -2.6510  -2.6491
    -2.6430  -2.6340  -2.6328  -2.5973  -2.5954  -2.5883  -2.5880  -2.5859
    -2.5857  -2.5472  -2.5464  -2.5371  -2.5367  -2.5352  -2.5342  -2.4916
    -2.4750  -2.4722  -2.4184  -2.4173  -2.4004  -2.3984  -2.3924  -2.3914
    -2.3450  -2.3425  -2.3201  -2.3054  -2.2908  -2.2890  -2.2877  -2.2668
    -2.2661  -2.2567  -2.2386  -2.2026  -2.1996  -2.1867  -2.1836  -2.1833
    -2.1749  -2.1731  -2.1612  -2.1577  -2.1570  -2.1534  -2.1493  -2.1470
    -2.1468  -2.1368  -2.1353  -2.1181  -2.1173  -2.1156  -2.1096  -2.1069
    -2.1056  -2.0835  -2.0819  -2.0706  -2.0694  -2.0633  -2.0628  -2.0253
    -1.9921  -1.9915  -1.9564  -1.9399  -1.9391  -1.9309  -1.9271  -1.9058
    -1.9043  -1.8928  -1.8892  -1.8876  -1.8871  -1.8868  -1.8833  -1.8520
    -1.8519  -1.8515  -1.8063  -1.8057  -1.7674  -1.7648  -1.7186  -1.7183
    -1.7056  -1.6837  -1.6786  -1.6755  -1.6606  -1.6585  -1.6422  -1.6394
    -1.6373  -1.6347  -1.6336  -1.6333  -1.6318  -1.6307  -1.6108  -1.6092
    -1.5976  -1.5824  -1.5645  -1.5642  -1.5389  -1.5364  -1.5336  -1.5329
    -1.5300  -1.5268  -1.5068  -1.5042  -1.4907  -1.4894  -1.4773  -1.4679
    -1.4544  -1.4529  -1.4238  -1.4225  -1.4152  -1.4138  -1.3801  -1.3783
    -1.3708  -1.3697  -1.3624  -1.3617  -1.3407  -1.3392  -1.3285  -1.3225
    -1.3207  -1.3105  -1.3086  -1.3066  -1.3064  -1.2931  -1.2847  -1.2819
    -1.2742  -1.2738  -1.2642  -1.2591  -1.2573  -1.2507  -1.2193  -1.2103
    -1.2046  -1.2045  -1.2016  -1.2003  -1.1905  -1.1622  -1.1448  -1.1437
    -1.1436  -1.1424  -1.1392  -1.1345  -1.1310  -1.1214  -1.1186  -1.0827
    -1.0822  -1.0754  -1.0748  -1.0528  -1.0522  -1.0426  -1.0133  -1.0051
    -0.9788  -0.9770  -0.9500  -0.9496  -0.9468  -0.9464  -0.9439  -0.9400
    -0.9357  -0.9355  -0.9316  -0.9303  -0.8991  -0.8984  -0.8802  -0.8776
    -0.8757  -0.8743  -0.8726  -0.8718  -0.8545  -0.5803  -0.5672  -0.5102
    -0.5094  -0.4731  -0.3124  -0.2478  -0.2466  -0.2133   0.0720   0.0727
     0.4029   0.4042   0.5005   0.5011   0.5411   0.5434   0.6867   0.6870
     0.8093   0.8119   0.9017   1.4971   1.5148   1.5158   1.5521   1.5613
     1.6056   1.6098   1.6851   1.6864   1.8917   1.8929   2.1289   2.2058
     2.2100   2.2238   2.6039   2.6085   2.6777   2.6784   2.6847   2.6865
     2.8365   2.8375   2.8906   2.9812   2.9839   3.2135   3.2141   3.3465
     3.3734   3.3752   3.6458   3.6475   3.7587   3.7776   3.7781   3.8504
     3.8683   3.9619   3.9663   4.1996   4.2031   4.2908   4.2924   4.4130
     4.4182   4.4355   4.4432   4.6057   5.2111   5.2538   5.3257   5.3479
     5.3495   5.5245   5.5259   5.5712   5.6237   5.6425   5.6480   5.6913
     5.6948   5.7005   5.7190   5.7399   5.9917   6.0039   6.0132   6.0291
     6.0384   6.0396   6.0444   6.0485   6.1095   6.1351   6.1621   6.1767

          k =-0.2500 0.2500-0.0833 (167653 PWs)   bands (ev):

   -19.2003  -7.0255  -6.9284  -6.4006  -6.3989  -5.9701  -5.5622  -5.4686
    -5.4670  -5.2718  -5.2716  -5.1568  -5.1528  -5.0752  -5.0527  -4.9794
    -4.8946  -4.8907  -4.8524  -4.8513  -4.6913  -4.6747  -4.6734  -4.6723
    -4.6655  -4.6104  -4.6101  -4.5988  -4.5976  -4.5612  -4.5505  -4.5477
    -4.5068  -4.5062  -4.4730  -4.4717  -4.4214  -4.4189  -4.4097  -4.4079
    -4.4021  -4.3894  -4.3890  -4.3489  -4.3301  -4.3296  -4.3227  -4.3223
    -4.2909  -4.2419  -4.2261  -4.2251  -4.2249  -4.2208  -4.2139  -4.2084
    -4.2079  -4.2072  -4.1451  -4.1415  -4.0950  -4.0918  -4.0802  -4.0552
    -4.0538  -4.0366  -4.0313  -4.0307  -4.0265  -4.0240  -3.9750  -3.9750
    -3.9624  -3.9613  -3.8589  -3.8558  -3.8523  -3.8494  -3.8131  -3.8062
    -3.7887  -3.7605  -3.7599  -3.7320  -3.7301  -3.7107  -3.7087  -3.6965
    -3.6946  -3.6410  -3.6400  -3.6237  -3.6061  -3.5957  -3.5941  -3.5929
    -3.5922  -3.5662  -3.5645  -3.5314  -3.5286  -3.5076  -3.5055  -3.4739
    -3.4722  -3.4550  -3.4277  -3.4272  -3.3908  -3.3890  -3.3738  -3.3508
    -3.3457  -3.3431  -3.3312  -3.3303  -3.3261  -3.3141  -3.2893  -3.2763
    -3.2373  -3.2353  -3.2286  -3.2189  -3.2184  -3.2124  -3.1932  -3.1928
    -3.1719  -3.1712  -3.1704  -3.1443  -3.1442  -3.1367  -3.1343  -3.1316
    -3.0973  -3.0942  -3.0585  -3.0574  -3.0567  -3.0547  -3.0538  -2.9747
    -2.9649  -2.9618  -2.9599  -2.9596  -2.9583  -2.9536  -2.9535  -2.9533
    -2.9529  -2.9436  -2.9357  -2.9194  -2.9163  -2.9148  -2.9115  -2.9005
    -2.8967  -2.8580  -2.8571  -2.8570  -2.8528  -2.8519  -2.8348  -2.8339
    -2.8259  -2.8254  -2.8230  -2.7642  -2.7639  -2.7583  -2.7582  -2.7538
    -2.7510  -2.7246  -2.6658  -2.6649  -2.6642  -2.6620  -2.6510  -2.6491
    -2.6429  -2.6341  -2.6328  -2.5975  -2.5952  -2.5885  -2.5881  -2.5857
    -2.5856  -2.5472  -2.5463  -2.5371  -2.5366  -2.5353  -2.5341  -2.4916
    -2.4750  -2.4722  -2.4185  -2.4172  -2.4005  -2.3983  -2.3925  -2.3913
    -2.3452  -2.3423  -2.3201  -2.3055  -2.2908  -2.2891  -2.2877  -2.2669
    -2.2660  -2.2567  -2.2386  -2.2031  -2.1994  -2.1868  -2.1834  -2.1833
    -2.1750  -2.1731  -2.1615  -2.1577  -2.1572  -2.1534  -2.1494  -2.1469
    -2.1466  -2.1369  -2.1352  -2.1182  -2.1172  -2.1156  -2.1096  -2.1070
    -2.1055  -2.0835  -2.0817  -2.0706  -2.0695  -2.0632  -2.0630  -2.0253
    -1.9922  -1.9913  -1.9564  -1.9400  -1.9390  -1.9310  -1.9270  -1.9058
    -1.9042  -1.8929  -1.8891  -1.8877  -1.8872  -1.8870  -1.8831  -1.8521
    -1.8519  -1.8514  -1.8063  -1.8056  -1.7675  -1.7646  -1.7186  -1.7183
    -1.7056  -1.6837  -1.6786  -1.6755  -1.6606  -1.6586  -1.6424  -1.6391
    -1.6372  -1.6346  -1.6337  -1.6333  -1.6318  -1.6308  -1.6109  -1.6091
    -1.5977  -1.5824  -1.5645  -1.5641  -1.5388  -1.5364  -1.5338  -1.5327
    -1.5295  -1.5270  -1.5070  -1.5042  -1.4906  -1.4893  -1.4774  -1.4679
    -1.4546  -1.4527  -1.4239  -1.4223  -1.4154  -1.4137  -1.3802  -1.3784
    -1.3708  -1.3696  -1.3625  -1.3618  -1.3408  -1.3391  -1.3285  -1.3225
    -1.3207  -1.3104  -1.3085  -1.3066  -1.3063  -1.2931  -1.2847  -1.2820
    -1.2742  -1.2739  -1.2640  -1.2599  -1.2575  -1.2506  -1.2200  -1.2099
    -1.2050  -1.2048  -1.2017  -1.2003  -1.1901  -1.1621  -1.1451  -1.1437
    -1.1436  -1.1423  -1.1389  -1.1345  -1.1297  -1.1215  -1.1184  -1.0830
    -1.0820  -1.0754  -1.0749  -1.0529  -1.0521  -1.0426  -1.0132  -1.0051
    -0.9789  -0.9768  -0.9501  -0.9497  -0.9468  -0.9464  -0.9439  -0.9400
    -0.9358  -0.9355  -0.9318  -0.9302  -0.8992  -0.8982  -0.8800  -0.8778
    -0.8759  -0.8741  -0.8727  -0.8714  -0.8545  -0.5804  -0.5672  -0.5103
    -0.5091  -0.4731  -0.3127  -0.2481  -0.2464  -0.2134   0.0720   0.0727
     0.4022   0.4048   0.5003   0.5012   0.5406   0.5436   0.6860   0.6878
     0.8093   0.8119   0.9017   1.4971   1.5147   1.5160   1.5527   1.5612
     1.6041   1.6112   1.6845   1.6870   1.8913   1.8933   2.1292   2.2053
     2.2107   2.2237   2.6029   2.6097   2.6778   2.6783   2.6845   2.6867
     2.8363   2.8377   2.8904   2.9794   2.9850   3.2124   3.2142   3.3465
     3.3730   3.3758   3.6445   3.6483   3.7601   3.7776   3.7783   3.8470
     3.8709   3.9612   3.9667   4.1992   4.2032   4.2914   4.2920   4.4137
     4.4176   4.4361   4.4445   4.6073   5.2102   5.2566   5.3222   5.3480
     5.3501   5.5229   5.5264   5.5698   5.6217   5.6427   5.6478   5.6894
     5.6944   5.6990   5.7230   5.7394   5.9928   5.9993   6.0138   6.0289
     6.0381   6.0400   6.0449   6.0485   6.1109   6.1367   6.1580   6.1801

          k = 0.2500-0.2500-0.0833 (167653 PWs)   bands (ev):

   -19.2003  -7.0255  -6.9284  -6.4006  -6.3989  -5.9701  -5.5622  -5.4686
    -5.4670  -5.2718  -5.2716  -5.1568  -5.1528  -5.0752  -5.0527  -4.9794
    -4.8946  -4.8907  -4.8524  -4.8513  -4.6913  -4.6747  -4.6734  -4.6723
    -4.6655  -4.6104  -4.6101  -4.5988  -4.5976  -4.5612  -4.5505  -4.5477
    -4.5068  -4.5062  -4.4730  -4.4717  -4.4214  -4.4189  -4.4097  -4.4079
    -4.4021  -4.3894  -4.3890  -4.3489  -4.3301  -4.3296  -4.3227  -4.3223
    -4.2909  -4.2419  -4.2261  -4.2251  -4.2249  -4.2208  -4.2139  -4.2084
    -4.2079  -4.2072  -4.1451  -4.1415  -4.0950  -4.0918  -4.0802  -4.0552
    -4.0538  -4.0366  -4.0313  -4.0307  -4.0265  -4.0240  -3.9750  -3.9750
    -3.9624  -3.9613  -3.8589  -3.8558  -3.8523  -3.8494  -3.8131  -3.8062
    -3.7887  -3.7605  -3.7599  -3.7320  -3.7301  -3.7107  -3.7087  -3.6965
    -3.6946  -3.6410  -3.6400  -3.6237  -3.6061  -3.5957  -3.5941  -3.5929
    -3.5922  -3.5662  -3.5645  -3.5314  -3.5286  -3.5076  -3.5055  -3.4739
    -3.4722  -3.4550  -3.4277  -3.4272  -3.3908  -3.3890  -3.3738  -3.3508
    -3.3457  -3.3431  -3.3312  -3.3303  -3.3261  -3.3141  -3.2893  -3.2763
    -3.2373  -3.2353  -3.2286  -3.2189  -3.2184  -3.2124  -3.1932  -3.1928
    -3.1719  -3.1712  -3.1704  -3.1443  -3.1442  -3.1367  -3.1343  -3.1316
    -3.0973  -3.0942  -3.0585  -3.0574  -3.0567  -3.0547  -3.0538  -2.9747
    -2.9649  -2.9618  -2.9599  -2.9596  -2.9583  -2.9536  -2.9535  -2.9533
    -2.9529  -2.9436  -2.9357  -2.9194  -2.9163  -2.9148  -2.9115  -2.9005
    -2.8967  -2.8580  -2.8571  -2.8570  -2.8528  -2.8519  -2.8348  -2.8339
    -2.8259  -2.8254  -2.8230  -2.7642  -2.7639  -2.7583  -2.7582  -2.7538
    -2.7510  -2.7246  -2.6658  -2.6649  -2.6642  -2.6620  -2.6510  -2.6491
    -2.6429  -2.6341  -2.6328  -2.5975  -2.5952  -2.5885  -2.5881  -2.5857
    -2.5856  -2.5472  -2.5463  -2.5371  -2.5366  -2.5353  -2.5341  -2.4916
    -2.4750  -2.4722  -2.4185  -2.4172  -2.4005  -2.3983  -2.3925  -2.3913
    -2.3452  -2.3423  -2.3201  -2.3055  -2.2908  -2.2891  -2.2877  -2.2669
    -2.2660  -2.2567  -2.2386  -2.2031  -2.1994  -2.1868  -2.1834  -2.1833
    -2.1750  -2.1731  -2.1615  -2.1577  -2.1572  -2.1534  -2.1494  -2.1469
    -2.1466  -2.1369  -2.1352  -2.1182  -2.1172  -2.1156  -2.1096  -2.1070
    -2.1055  -2.0835  -2.0817  -2.0706  -2.0695  -2.0632  -2.0630  -2.0253
    -1.9922  -1.9913  -1.9564  -1.9400  -1.9390  -1.9310  -1.9270  -1.9058
    -1.9042  -1.8929  -1.8891  -1.8877  -1.8872  -1.8870  -1.8831  -1.8521
    -1.8519  -1.8514  -1.8063  -1.8056  -1.7675  -1.7646  -1.7186  -1.7183
    -1.7056  -1.6837  -1.6786  -1.6755  -1.6606  -1.6586  -1.6424  -1.6391
    -1.6372  -1.6346  -1.6337  -1.6333  -1.6318  -1.6308  -1.6109  -1.6091
    -1.5977  -1.5824  -1.5645  -1.5641  -1.5388  -1.5364  -1.5338  -1.5327
    -1.5295  -1.5270  -1.5070  -1.5042  -1.4906  -1.4893  -1.4774  -1.4679
    -1.4546  -1.4527  -1.4239  -1.4223  -1.4154  -1.4137  -1.3802  -1.3784
    -1.3708  -1.3696  -1.3625  -1.3618  -1.3408  -1.3391  -1.3285  -1.3225
    -1.3207  -1.3104  -1.3085  -1.3066  -1.3063  -1.2931  -1.2847  -1.2820
    -1.2742  -1.2739  -1.2640  -1.2599  -1.2575  -1.2506  -1.2200  -1.2099
    -1.2050  -1.2048  -1.2017  -1.2003  -1.1901  -1.1621  -1.1451  -1.1437
    -1.1436  -1.1423  -1.1389  -1.1345  -1.1297  -1.1215  -1.1184  -1.0830
    -1.0820  -1.0754  -1.0749  -1.0529  -1.0521  -1.0426  -1.0132  -1.0051
    -0.9789  -0.9768  -0.9501  -0.9497  -0.9468  -0.9464  -0.9439  -0.9400
    -0.9358  -0.9355  -0.9318  -0.9302  -0.8992  -0.8982  -0.8800  -0.8778
    -0.8759  -0.8741  -0.8727  -0.8714  -0.8545  -0.5804  -0.5672  -0.5103
    -0.5091  -0.4731  -0.3127  -0.2481  -0.2464  -0.2134   0.0720   0.0727
     0.4022   0.4048   0.5003   0.5012   0.5406   0.5436   0.6860   0.6878
     0.8093   0.8119   0.9017   1.4971   1.5147   1.5160   1.5527   1.5612
     1.6041   1.6112   1.6845   1.6870   1.8913   1.8933   2.1292   2.2053
     2.2107   2.2237   2.6029   2.6097   2.6778   2.6783   2.6845   2.6867
     2.8363   2.8377   2.8904   2.9794   2.9850   3.2124   3.2142   3.3465
     3.3730   3.3758   3.6445   3.6483   3.7601   3.7776   3.7783   3.8470
     3.8709   3.9612   3.9667   4.1992   4.2032   4.2914   4.2920   4.4137
     4.4176   4.4361   4.4445   4.6073   5.2102   5.2566   5.3222   5.3480
     5.3501   5.5229   5.5264   5.5698   5.6217   5.6427   5.6478   5.6894
     5.6944   5.6990   5.7230   5.7394   5.9928   5.9993   6.0138   6.0289
     6.0381   6.0400   6.0449   6.0485   6.1110   6.1367   6.1579   6.1801

          k =-0.2500 0.2500 0.2500 (167588 PWs)   bands (ev):

   -19.2003  -7.0255  -6.9284  -6.4006  -6.3989  -5.9701  -5.5622  -5.4686
    -5.4670  -5.2718  -5.2716  -5.1568  -5.1528  -5.0752  -5.0527  -4.9794
    -4.8946  -4.8907  -4.8524  -4.8513  -4.6913  -4.6747  -4.6734  -4.6723
    -4.6655  -4.6104  -4.6101  -4.5988  -4.5976  -4.5612  -4.5505  -4.5477
    -4.5068  -4.5062  -4.4730  -4.4717  -4.4214  -4.4189  -4.4097  -4.4079
    -4.4021  -4.3894  -4.3890  -4.3489  -4.3301  -4.3296  -4.3227  -4.3223
    -4.2909  -4.2419  -4.2261  -4.2251  -4.2249  -4.2208  -4.2139  -4.2084
    -4.2079  -4.2072  -4.1450  -4.1415  -4.0950  -4.0918  -4.0802  -4.0552
    -4.0538  -4.0366  -4.0313  -4.0307  -4.0265  -4.0240  -3.9750  -3.9750
    -3.9624  -3.9613  -3.8589  -3.8558  -3.8523  -3.8494  -3.8130  -3.8062
    -3.7887  -3.7605  -3.7599  -3.7320  -3.7301  -3.7107  -3.7087  -3.6965
    -3.6946  -3.6410  -3.6400  -3.6237  -3.6061  -3.5957  -3.5941  -3.5929
    -3.5922  -3.5662  -3.5645  -3.5314  -3.5286  -3.5076  -3.5055  -3.4739
    -3.4722  -3.4550  -3.4277  -3.4272  -3.3908  -3.3890  -3.3738  -3.3508
    -3.3457  -3.3431  -3.3312  -3.3303  -3.3261  -3.3141  -3.2893  -3.2763
    -3.2373  -3.2353  -3.2286  -3.2189  -3.2184  -3.2124  -3.1932  -3.1928
    -3.1719  -3.1712  -3.1704  -3.1443  -3.1442  -3.1366  -3.1343  -3.1316
    -3.0973  -3.0942  -3.0585  -3.0574  -3.0567  -3.0547  -3.0538  -2.9747
    -2.9649  -2.9617  -2.9599  -2.9596  -2.9583  -2.9536  -2.9535  -2.9533
    -2.9529  -2.9436  -2.9357  -2.9194  -2.9163  -2.9148  -2.9115  -2.9005
    -2.8967  -2.8580  -2.8571  -2.8570  -2.8528  -2.8519  -2.8348  -2.8339
    -2.8259  -2.8254  -2.8230  -2.7642  -2.7639  -2.7583  -2.7582  -2.7538
    -2.7510  -2.7246  -2.6658  -2.6649  -2.6642  -2.6620  -2.6510  -2.6491
    -2.6429  -2.6340  -2.6327  -2.5975  -2.5952  -2.5885  -2.5881  -2.5857
    -2.5856  -2.5472  -2.5463  -2.5371  -2.5366  -2.5353  -2.5341  -2.4916
    -2.4750  -2.4722  -2.4185  -2.4172  -2.4005  -2.3984  -2.3925  -2.3914
    -2.3452  -2.3423  -2.3201  -2.3055  -2.2908  -2.2891  -2.2877  -2.2669
    -2.2660  -2.2567  -2.2386  -2.2031  -2.1994  -2.1868  -2.1834  -2.1833
    -2.1750  -2.1730  -2.1615  -2.1577  -2.1572  -2.1534  -2.1494  -2.1469
    -2.1466  -2.1369  -2.1352  -2.1182  -2.1172  -2.1156  -2.1096  -2.1070
    -2.1055  -2.0835  -2.0817  -2.0706  -2.0695  -2.0632  -2.0630  -2.0253
    -1.9922  -1.9913  -1.9565  -1.9400  -1.9390  -1.9310  -1.9270  -1.9057
    -1.9042  -1.8929  -1.8890  -1.8877  -1.8872  -1.8870  -1.8831  -1.8521
    -1.8519  -1.8514  -1.8063  -1.8056  -1.7676  -1.7646  -1.7186  -1.7183
    -1.7056  -1.6837  -1.6786  -1.6755  -1.6606  -1.6586  -1.6424  -1.6391
    -1.6372  -1.6346  -1.6337  -1.6333  -1.6318  -1.6308  -1.6109  -1.6091
    -1.5977  -1.5825  -1.5645  -1.5641  -1.5388  -1.5364  -1.5338  -1.5327
    -1.5295  -1.5270  -1.5070  -1.5042  -1.4906  -1.4893  -1.4773  -1.4679
    -1.4546  -1.4527  -1.4239  -1.4223  -1.4154  -1.4137  -1.3802  -1.3783
    -1.3708  -1.3696  -1.3625  -1.3618  -1.3408  -1.3391  -1.3285  -1.3225
    -1.3207  -1.3104  -1.3085  -1.3066  -1.3063  -1.2931  -1.2847  -1.2820
    -1.2742  -1.2739  -1.2640  -1.2599  -1.2575  -1.2506  -1.2200  -1.2099
    -1.2050  -1.2048  -1.2017  -1.2003  -1.1901  -1.1621  -1.1451  -1.1436
    -1.1436  -1.1423  -1.1389  -1.1345  -1.1296  -1.1215  -1.1184  -1.0830
    -1.0820  -1.0754  -1.0749  -1.0529  -1.0521  -1.0426  -1.0132  -1.0051
    -0.9789  -0.9768  -0.9501  -0.9497  -0.9468  -0.9464  -0.9439  -0.9401
    -0.9358  -0.9355  -0.9318  -0.9302  -0.8992  -0.8982  -0.8800  -0.8778
    -0.8759  -0.8741  -0.8727  -0.8714  -0.8545  -0.5804  -0.5672  -0.5103
    -0.5091  -0.4731  -0.3127  -0.2481  -0.2464  -0.2134   0.0721   0.0727
     0.4022   0.4048   0.5003   0.5012   0.5406   0.5436   0.6860   0.6878
     0.8093   0.8119   0.9017   1.4971   1.5147   1.5160   1.5527   1.5612
     1.6041   1.6112   1.6845   1.6870   1.8913   1.8933   2.1292   2.2052
     2.2107   2.2237   2.6029   2.6097   2.6778   2.6783   2.6845   2.6867
     2.8363   2.8377   2.8904   2.9794   2.9850   3.2124   3.2143   3.3465
     3.3730   3.3758   3.6445   3.6484   3.7601   3.7776   3.7783   3.8470
     3.8709   3.9612   3.9667   4.1992   4.2032   4.2914   4.2920   4.4137
     4.4176   4.4361   4.4445   4.6074   5.2077   5.2565   5.3075   5.3463
     5.3501   5.5229   5.5263   5.5694   5.6267   5.6426   5.6517   5.6892
     5.6967   5.7025   5.7382   5.7611   5.9938   5.9994   6.0145   6.0290
     6.0383   6.0400   6.0449   6.0485   6.1139   6.1367   6.1607   6.2472

     the Fermi energy is     0.7607 ev

!    total energy              =   -7425.29277698 Ry
     Harris-Foulkes estimate   =   -7425.29277697 Ry
     estimated scf accuracy    <          2.3E-09 Ry

     The total energy is the sum of the following terms:

     one-electron contribution =  -48679.29317842 Ry
     hartree contribution      =   24887.48857825 Ry
     xc contribution           =   -3604.21569674 Ry
     ewald contribution        =   19970.73024390 Ry
     smearing contrib. (-TS)   =      -0.00272396 Ry

     convergence has been achieved in  29 iterations

     Writing output data file 7992055.save

     init_run     :    116.89s CPU    125.54s WALL (       1 calls)
     electrons    :   7599.40s CPU   8159.08s WALL (       1 calls)

     Called by init_run:
     wfcinit      :     76.40s CPU     84.27s WALL (       1 calls)
     potinit      :      6.94s CPU      7.26s WALL (       1 calls)

     Called by electrons:
     c_bands      :   5526.79s CPU   5981.88s WALL (      30 calls)
     sum_band     :   1309.73s CPU   1394.56s WALL (      30 calls)
     v_of_rho     :    146.80s CPU    158.67s WALL (      30 calls)
     newd         :    635.35s CPU    642.58s WALL (      30 calls)
     mix_rho      :      4.76s CPU      5.19s WALL (      30 calls)
     vdW_energy   :     15.76s CPU     18.93s WALL (      30 calls)
     vdW_ffts     :     73.72s CPU     78.52s WALL (      60 calls)
     vdW_v        :     18.75s CPU     19.57s WALL (      30 calls)

     Called by c_bands:
     init_us_2    :     18.47s CPU     18.86s WALL (     366 calls)
     cegterg      :   5384.35s CPU   5838.19s WALL (     180 calls)

     Called by *egterg:
     h_psi        :   2857.29s CPU   3234.57s WALL (     881 calls)
     s_psi        :    271.55s CPU    273.69s WALL (     881 calls)
     g_psi        :      6.79s CPU      6.79s WALL (     695 calls)
     cdiaghg      :   1165.10s CPU   1170.85s WALL (     869 calls)

     Called by h_psi:
     add_vuspsi   :    274.81s CPU    277.19s WALL (     881 calls)

     General routines
     calbec       :    431.30s CPU    432.72s WALL (    1061 calls)
     fft          :    198.60s CPU    206.53s WALL (    1980 calls)
     ffts         :      1.76s CPU      1.93s WALL (      60 calls)
     fftw         :   2659.41s CPU   3072.23s WALL (  478092 calls)
     interpolate  :      5.05s CPU      5.58s WALL (      60 calls)
     davcio       :      0.01s CPU      0.30s WALL (       6 calls)

     Parallel routines
     fft_scatter  :   2190.98s CPU   2552.11s WALL (  480132 calls)

     PWSCF        :     2h 8m CPU        2h18m WALL


   This run was terminated on:  10:38: 6  27Jun2015            

=------------------------------------------------------------------------------=
   JOB DONE.
=------------------------------------------------------------------------------=
