Setting SGE environment for SCC

     Program PWSCF v.5.1.2 starts on 26Jun2015 at  7:32:37 

     This program is part of the open-source Quantum ESPRESSO suite
     for quantum simulation of materials; please cite
         "P. Giannozzi et al., J. Phys.:Condens. Matter 21 395502 (2009);
          URL http://www.quantum-espresso.org", 
     in publications or presentations arising from this work. More details at
     http://www.quantum-espresso.org/quote

     Parallel version (MPI), running on    32 processors
     R & G space division:  proc/nbgrp/npool/nimage =      32
     Reading input from top.O1.Au62.d.2.6.phi.45.psi.180.in
Warning: card &IONS ignored
Warning: card / ignored
Warning: card &CELL ignored
Warning: card / ignored

     Current dimensions of program PWSCF are:
     Max number of different atomic species (ntypx) = 10
     Max number of k-points (npk) =  40000
     Max angular momentum in pseudopotentials (lmaxx) =  3

     IMPORTANT: XC functional enforced from input :
     Exchange-correlation      = VDW-DF ( 1  4  4  0 1 0)
     Any further DFT definition will be discarded
     Please, verify this is what you really want


     Subspace diagonalization in iterative solution of the eigenvalue problem:
     a serial algorithm will be used


     Parallelization info
     --------------------
     sticks:   dense  smooth     PW     G-vecs:    dense   smooth      PW
     Min         578     289     74               118518    41891    5486
     Max         579     290     75               118533    41932    5497
     Sum       18505    9265   2385              3792731  1341081  175711


     Title: 
     top.O1.Au62.d.2.6.phi.45.psi.180                                           


     bravais-lattice index     =            8
     lattice parameter (alat)  =      24.1233  a.u.
     unit-cell volume          =   28076.2361 (a.u.)^3
     number of atoms/cell      =           75
     number of atomic types    =            3
     number of electrons       =       800.00
     number of Kohn-Sham states=          480
     kinetic-energy cutoff     =      50.0000  Ry
     charge density cutoff     =     400.0000  Ry
     convergence threshold     =      1.0E-08
     mixing beta               =       0.7000
     number of iterations used =            8  plain     mixing
     Exchange-correlation      = VDW-DF ( 1  4  4  0 1 0)

     celldm(1)=  24.123277  celldm(2)=   1.000000  celldm(3)=   2.000000
     celldm(4)=   0.000000  celldm(5)=   0.000000  celldm(6)=   0.000000

     crystal axes: (cart. coord. in units of alat)
               a(1) = (   1.000000   0.000000   0.000000 )  
               a(2) = (   0.000000   1.000000   0.000000 )  
               a(3) = (   0.000000   0.000000   2.000000 )  

     reciprocal axes: (cart. coord. in units 2 pi/alat)
               b(1) = (  1.000000  0.000000  0.000000 )  
               b(2) = (  0.000000  1.000000  0.000000 )  
               b(3) = (  0.000000  0.000000  0.500000 )  


     PseudoPot. # 1 for Au read from file:
     /home/scc/andrejb/qe/pseudo/Au.pbe-nd-van.UPF
     MD5 check sum: 458681b50f36d87ef23c61b04bba420a
     Pseudo is Ultrasoft + core correction, Zval = 11.0
     Generated by new atomic code, or converted to UPF format
     Using radial grid of  985 points,  3 beta functions with: 
                l(1) =   1
                l(2) =   2
                l(3) =   2
     Q(r) pseudized with  8 coefficients,  rinner =    1.100   1.100   1.100
                                                       1.100   1.100

     PseudoPot. # 2 for H  read from file:
     /home/scc/andrejb/qe/pseudo/H.pbe-van_ak.UPF
     MD5 check sum: 403db7282739603aa925980fa9b8608d
     Pseudo is Ultrasoft, Zval =  1.0
     Generated by new atomic code, or converted to UPF format
     Using radial grid of  615 points,  1 beta functions with: 
                l(1) =   0
     Q(r) pseudized with  8 coefficients,  rinner =    0.800

     PseudoPot. # 3 for O  read from file:
     /home/scc/andrejb/qe/pseudo/O.pbe-van_ak.UPF
     MD5 check sum: 4b8c549914a63cae506c6ff22b5af4fe
     Pseudo is Ultrasoft, Zval =  6.0
     Generated by new atomic code, or converted to UPF format
     Using radial grid of  737 points,  4 beta functions with: 
                l(1) =   0
                l(2) =   0
                l(3) =   1
                l(4) =   1
     Q(r) pseudized with  8 coefficients,  rinner =    0.800   0.800   0.800


     vdW kernel table read from file vdW_kernel_table
     MD5 check sum: 48e77a2e26edf626eeb0eaa751ad5cac

     atomic species   valence    mass     pseudopotential
        Au            11.00   196.96657     Au( 1.00)
        H              1.00     1.01000     H ( 1.00)
        O              6.00    16.00000     O ( 1.00)

     No symmetry found



   Cartesian axes

     site n.     atom                  positions (alat units)
         1           O   tau(   1) = (   0.4998324   0.3332216   0.7029927  )
         2           H   tau(   2) = (   0.4942419   0.3942089   0.6574988  )
         3           H   tau(   3) = (   0.5052408   0.2740707   0.6551350  )
         4           Au  tau(   4) = (   0.0000000   0.0000000   0.0000000  )
         5           Au  tau(   5) = (   0.3332217   0.0000000   0.0000000  )
         6           Au  tau(   6) = (   0.6664435   0.0000000   0.0000000  )
         7           Au  tau(   7) = (   0.1666109   0.1666109   0.0000000  )
         8           Au  tau(   8) = (   0.4998326   0.1666109   0.0000000  )
         9           Au  tau(   9) = (   0.8330542   0.1666109   0.0000000  )
        10           Au  tau(  10) = (   0.0000000   0.3332217   0.0000000  )
        11           Au  tau(  11) = (   0.3332217   0.3332217   0.0000000  )
        12           Au  tau(  12) = (   0.6664435   0.3332217   0.0000000  )
        13           Au  tau(  13) = (   0.1666109   0.4998326   0.0000000  )
        14           Au  tau(  14) = (   0.4998326   0.4998326   0.0000000  )
        15           Au  tau(  15) = (   0.8330542   0.4998326   0.0000000  )
        16           Au  tau(  16) = (   0.0000000   0.6664435   0.0000000  )
        17           Au  tau(  17) = (   0.3332217   0.6664435   0.0000000  )
        18           Au  tau(  18) = (   0.6664435   0.6664435   0.0000000  )
        19           Au  tau(  19) = (   0.1666109   0.8330542   0.0000000  )
        20           Au  tau(  20) = (   0.4998326   0.8330542   0.0000000  )
        21           Au  tau(  21) = (   0.8330542   0.8330542   0.0000000  )
        22           Au  tau(  22) = (   0.1666109   0.0000000   0.1666109  )
        23           Au  tau(  23) = (   0.4998326   0.0000000   0.1666109  )
        24           Au  tau(  24) = (   0.8330542   0.0000000   0.1666109  )
        25           Au  tau(  25) = (   0.0000000   0.1666109   0.1666109  )
        26           Au  tau(  26) = (   0.3332217   0.1666109   0.1666109  )
        27           Au  tau(  27) = (   0.6664435   0.1666109   0.1666109  )
        28           Au  tau(  28) = (   0.1666109   0.3332217   0.1666109  )
        29           Au  tau(  29) = (   0.4998326   0.3332217   0.1666109  )
        30           Au  tau(  30) = (   0.8330542   0.3332217   0.1666109  )
        31           Au  tau(  31) = (   0.0000000   0.4998326   0.1666109  )
        32           Au  tau(  32) = (   0.3332217   0.4998326   0.1666109  )
        33           Au  tau(  33) = (   0.6664435   0.4998326   0.1666109  )
        34           Au  tau(  34) = (   0.1666109   0.6664435   0.1666109  )
        35           Au  tau(  35) = (   0.4998326   0.6664435   0.1666109  )
        36           Au  tau(  36) = (   0.8330542   0.6664435   0.1666109  )
        37           Au  tau(  37) = (   0.0000000   0.8330542   0.1666109  )
        38           Au  tau(  38) = (   0.3332217   0.8330542   0.1666109  )
        39           Au  tau(  39) = (   0.6664435   0.8330542   0.1666109  )
        40           Au  tau(  40) = (  -0.0000182  -0.0000182   0.3335478  )
        41           Au  tau(  41) = (   0.3332215  -0.0000181   0.3335472  )
        42           Au  tau(  42) = (   0.6664447  -0.0000183   0.3335481  )
        43           Au  tau(  43) = (  -0.0000181   0.3332215   0.3335472  )
        44           Au  tau(  44) = (   0.3332215   0.3332215   0.3335468  )
        45           Au  tau(  45) = (   0.6664445   0.3332215   0.3335478  )
        46           Au  tau(  46) = (  -0.0000183   0.6664447   0.3335481  )
        47           Au  tau(  47) = (   0.3332215   0.6664445   0.3335478  )
        48           Au  tau(  48) = (   0.6664446   0.6664446   0.3335486  )
        49           Au  tau(  49) = (   0.1666097   0.1666097   0.3335483  )
        50           Au  tau(  50) = (   0.4998320   0.1666098   0.3335477  )
        51           Au  tau(  51) = (   0.8330732   0.1666096   0.3335481  )
        52           Au  tau(  52) = (   0.1666098   0.4998320   0.3335477  )
        53           Au  tau(  53) = (   0.4998321   0.4998321   0.3335470  )
        54           Au  tau(  54) = (   0.8330730   0.4998322   0.3335474  )
        55           Au  tau(  55) = (   0.1666096   0.8330732   0.3335481  )
        56           Au  tau(  56) = (   0.4998322   0.8330730   0.3335474  )
        57           Au  tau(  57) = (   0.8330731   0.8330731   0.3335478  )
        58           Au  tau(  58) = (   0.1666104  -0.0000111   0.4993095  )
        59           Au  tau(  59) = (   0.4998323  -0.0000112   0.4993099  )
        60           Au  tau(  60) = (   0.8330661  -0.0000111   0.4993009  )
        61           Au  tau(  61) = (  -0.0000111   0.1666104   0.4993095  )
        62           Au  tau(  62) = (   0.3332214   0.1666106   0.4993185  )
        63           Au  tau(  63) = (   0.6664437   0.1666106   0.4993187  )
        64           Au  tau(  64) = (   0.1666106   0.3332214   0.4993185  )
        65           Au  tau(  65) = (   0.4998324   0.3332216   0.4993185  )
        66           Au  tau(  66) = (   0.8330659   0.3332215   0.4993103  )
        67           Au  tau(  67) = (  -0.0000112   0.4998323   0.4993099  )
        68           Au  tau(  68) = (   0.3332216   0.4998324   0.4993185  )
        69           Au  tau(  69) = (   0.6664436   0.4998325   0.4993187  )
        70           Au  tau(  70) = (   0.1666106   0.6664437   0.4993187  )
        71           Au  tau(  71) = (   0.4998325   0.6664436   0.4993187  )
        72           Au  tau(  72) = (   0.8330658   0.6664438   0.4993102  )
        73           Au  tau(  73) = (  -0.0000111   0.8330661   0.4993009  )
        74           Au  tau(  74) = (   0.3332215   0.8330659   0.4993103  )
        75           Au  tau(  75) = (   0.6664438   0.8330658   0.4993102  )

     number of k points=     6  Marzari-Vanderbilt smearing, width (Ry)=  0.0200
                       cart. coord. in units 2pi/alat
        k(    1) = (   0.2500000   0.2500000   0.0833333), wk =   0.3333333
        k(    2) = (   0.2500000   0.2500000  -0.2500000), wk =   0.3333333
        k(    3) = (  -0.2500000  -0.2500000   0.0833333), wk =   0.3333333
        k(    4) = (  -0.2500000   0.2500000  -0.0833333), wk =   0.3333333
        k(    5) = (   0.2500000  -0.2500000  -0.0833333), wk =   0.3333333
        k(    6) = (  -0.2500000   0.2500000   0.2500000), wk =   0.3333333

     Dense  grid:  3792731 G-vectors     FFT dimensions: ( 160, 160, 320)

     Smooth grid:  1341081 G-vectors     FFT dimensions: ( 120, 120, 225)

     Largest allocated arrays     est. size (Mb)     dimensions
        Kohn-Sham Wavefunctions        38.58 Mb     (    5267,  480)
        NL pseudopotentials            76.03 Mb     (    5267,  946)
        Each V/rho on FFT grid          3.91 Mb     (  256000)
        Each G-vector array             0.90 Mb     (  118520)
        G-vector shells                 0.08 Mb     (   10286)
     Largest temporary arrays     est. size (Mb)     dimensions
        Auxiliary wavefunctions       154.31 Mb     (    5267, 1920)
        Each subspace H/S matrix       56.25 Mb     (    1920, 1920)
        Each <psi_i|beta_j> matrix      6.93 Mb     (     946,  480)
        Arrays for rho mixing          31.25 Mb     (  256000,    8)

     Initial potential from superposition of free atoms
     Check: negative starting charge=   -1.945213

     starting charge  799.16392, renormalised to  800.00000

     negative rho (up, down):  1.947E+00 0.000E+00


     ************************************************************************
     *
     * You are using vdW-DF for exchange-correlation in this calculation.
     * Please cite the following three references that made this development
     * possible:
     *
     *   M. Dion, H. Rydberg, E. Schroder, D. C. Langreth, and
     *   B. I. Lundqvist, Phys. Rev. Lett. 92, 246401 (2004).
     *
     *   T. Thonhauser, V. R. Cooper, S. Li, A. Puzder, P. Hyldgaard, and
     *   D. C. Langreth, Phys. Rev. B 76, 125112 (2007).
     *
     *   G. Roman-Perez and J. M. Soler, Phys. Rev. Lett. 103, 096102 (2009).
     *
     *
     * If you are using vdW-DF2, please also cite:
     *
     *   K. Lee, E. D. Murray, L. Kong, B. I. Lundqvist, and
     *   D. C. Langreth, Phys. Rev. B 82, 081101(R) (2010).
     *
     *
     * If you are calculating the stress with vdW-DF, please also cite:
     *
     *   R. Sabatini, E. Kucukbenli, B. Kolb, T. Thonhauser, and
     *   S. de Gironcoli, J. Phys.: Condens. Matter 24, 424209 (2012).
     *
     ************************************************************************

     Carrying out vdW-DF run using the following parameters:

     Nqs =      20    Nr_points =    1024   r_max =   100.000
     q_mesh =
               0.00001000     0.04494208     0.09755937     0.15916263
               0.23128650     0.31572767     0.41458969     0.53033537
               0.66584808     0.82450364     1.01025438     1.22772762
               1.48234092     1.78043706     2.12944203     2.53805004
               3.01644009     3.57652955     4.23227104     5.00000000

     Gradients computed in reciprocal space

     ************************************************************************


     Starting wfc are  654 randomized atomic wfcs

     total cpu time spent up to now is      111.4 secs

     Self-consistent Calculation

     iteration #  1     ecut=    50.00 Ry     beta=0.70
     Davidson diagonalization with overlap
     ethr =  1.00E-02,  avg # of iterations =  3.0

     Threshold (ethr) on eigenvalues was too large:
     Diagonalizing with lowered threshold

     Davidson diagonalization with overlap
     ethr =  4.07E-04,  avg # of iterations =  2.0

     negative rho (up, down):  1.947E+00 0.000E+00

     total cpu time spent up to now is      489.6 secs

     total energy              =   -7423.06444338 Ry
     Harris-Foulkes estimate   =   -7426.00582555 Ry
     estimated scf accuracy    <       3.63872901 Ry

     iteration #  2     ecut=    50.00 Ry     beta=0.70
     Davidson diagonalization with overlap
     ethr =  4.55E-04,  avg # of iterations = 11.3

     negative rho (up, down):  1.943E+00 0.000E+00

     total cpu time spent up to now is     1159.8 secs

     total energy              =   -7415.67332543 Ry
     Harris-Foulkes estimate   =   -7432.31139512 Ry
     estimated scf accuracy    <      85.62116968 Ry

     iteration #  3     ecut=    50.00 Ry     beta=0.70
     Davidson diagonalization with overlap
     ethr =  4.55E-04,  avg # of iterations =  6.0

     negative rho (up, down):  1.953E+00 0.000E+00

     total cpu time spent up to now is     1571.0 secs

     total energy              =   -7424.03738818 Ry
     Harris-Foulkes estimate   =   -7425.83053805 Ry
     estimated scf accuracy    <       7.55199771 Ry

     iteration #  4     ecut=    50.00 Ry     beta=0.70
     Davidson diagonalization with overlap
     ethr =  4.55E-04,  avg # of iterations =  4.0

     negative rho (up, down):  1.956E+00 0.000E+00

     total cpu time spent up to now is     1779.5 secs

     total energy              =   -7424.76181302 Ry
     Harris-Foulkes estimate   =   -7425.68104715 Ry
     estimated scf accuracy    <       5.23531428 Ry

     iteration #  5     ecut=    50.00 Ry     beta=0.70
     Davidson diagonalization with overlap
     ethr =  4.55E-04,  avg # of iterations =  5.7

     negative rho (up, down):  1.962E+00 0.000E+00

     total cpu time spent up to now is     2019.3 secs

     total energy              =   -7425.04459891 Ry
     Harris-Foulkes estimate   =   -7425.53368689 Ry
     estimated scf accuracy    <       3.54828226 Ry

     iteration #  6     ecut=    50.00 Ry     beta=0.70
     Davidson diagonalization with overlap
     ethr =  4.44E-04,  avg # of iterations =  2.2

     negative rho (up, down):  1.966E+00 0.000E+00

     total cpu time spent up to now is     2195.1 secs

     total energy              =   -7425.23243020 Ry
     Harris-Foulkes estimate   =   -7425.29860286 Ry
     estimated scf accuracy    <       0.24678211 Ry

     iteration #  7     ecut=    50.00 Ry     beta=0.70
     Davidson diagonalization with overlap
     ethr =  3.08E-05,  avg # of iterations =  4.2

     negative rho (up, down):  1.970E+00 0.000E+00

     total cpu time spent up to now is     2422.4 secs

     total energy              =   -7425.24230859 Ry
     Harris-Foulkes estimate   =   -7425.29021803 Ry
     estimated scf accuracy    <       0.25626267 Ry

     iteration #  8     ecut=    50.00 Ry     beta=0.70
     Davidson diagonalization with overlap
     ethr =  3.08E-05,  avg # of iterations =  3.0

     negative rho (up, down):  1.971E+00 0.000E+00

     total cpu time spent up to now is     2619.7 secs

     total energy              =   -7425.25160399 Ry
     Harris-Foulkes estimate   =   -7425.27077109 Ry
     estimated scf accuracy    <       0.08145494 Ry

     iteration #  9     ecut=    50.00 Ry     beta=0.70
     Davidson diagonalization with overlap
     ethr =  1.02E-05,  avg # of iterations =  4.5

     negative rho (up, down):  1.972E+00 0.000E+00

     total cpu time spent up to now is     2832.3 secs

     total energy              =   -7425.25283714 Ry
     Harris-Foulkes estimate   =   -7425.26261504 Ry
     estimated scf accuracy    <       0.03424232 Ry

     iteration # 10     ecut=    50.00 Ry     beta=0.70
     Davidson diagonalization with overlap
     ethr =  4.28E-06,  avg # of iterations = 13.5

     negative rho (up, down):  1.972E+00 0.000E+00

     total cpu time spent up to now is     3138.3 secs

     total energy              =   -7425.25436886 Ry
     Harris-Foulkes estimate   =   -7425.25722128 Ry
     estimated scf accuracy    <       0.00900903 Ry

     iteration # 11     ecut=    50.00 Ry     beta=0.70
     Davidson diagonalization with overlap
     ethr =  1.13E-06,  avg # of iterations =  6.0

     negative rho (up, down):  1.973E+00 0.000E+00

     total cpu time spent up to now is     3369.0 secs

     total energy              =   -7425.25478564 Ry
     Harris-Foulkes estimate   =   -7425.25590528 Ry
     estimated scf accuracy    <       0.00372805 Ry

     iteration # 12     ecut=    50.00 Ry     beta=0.70
     Davidson diagonalization with overlap
     ethr =  4.66E-07,  avg # of iterations =  2.8

     negative rho (up, down):  1.974E+00 0.000E+00

     total cpu time spent up to now is     3553.7 secs

     total energy              =   -7425.25453820 Ry
     Harris-Foulkes estimate   =   -7425.25531841 Ry
     estimated scf accuracy    <       0.00146497 Ry

     iteration # 13     ecut=    50.00 Ry     beta=0.70
     Davidson diagonalization with overlap
     ethr =  1.83E-07,  avg # of iterations =  5.5

     negative rho (up, down):  1.974E+00 0.000E+00

     total cpu time spent up to now is     3869.0 secs

     total energy              =   -7425.25374148 Ry
     Harris-Foulkes estimate   =   -7425.25640281 Ry
     estimated scf accuracy    <       0.01418093 Ry

     iteration # 14     ecut=    50.00 Ry     beta=0.70
     Davidson diagonalization with overlap
     ethr =  1.83E-07,  avg # of iterations =  3.0

     negative rho (up, down):  1.974E+00 0.000E+00

     total cpu time spent up to now is     4109.7 secs

     total energy              =   -7425.25496766 Ry
     Harris-Foulkes estimate   =   -7425.25509385 Ry
     estimated scf accuracy    <       0.00042417 Ry

     iteration # 15     ecut=    50.00 Ry     beta=0.70
     Davidson diagonalization with overlap
     ethr =  5.30E-08,  avg # of iterations =  2.0

     negative rho (up, down):  1.974E+00 0.000E+00

     total cpu time spent up to now is     4293.4 secs

     total energy              =   -7425.25499774 Ry
     Harris-Foulkes estimate   =   -7425.25507758 Ry
     estimated scf accuracy    <       0.00035759 Ry

     iteration # 16     ecut=    50.00 Ry     beta=0.70
     Davidson diagonalization with overlap
     ethr =  4.47E-08,  avg # of iterations =  2.0

     negative rho (up, down):  1.974E+00 0.000E+00

     total cpu time spent up to now is     4486.0 secs

     total energy              =   -7425.25494238 Ry
     Harris-Foulkes estimate   =   -7425.25516062 Ry
     estimated scf accuracy    <       0.00187265 Ry

     iteration # 17     ecut=    50.00 Ry     beta=0.70
     Davidson diagonalization with overlap
     ethr =  4.47E-08,  avg # of iterations =  2.0

     negative rho (up, down):  1.974E+00 0.000E+00

     total cpu time spent up to now is     4663.0 secs

     total energy              =   -7425.25504729 Ry
     Harris-Foulkes estimate   =   -7425.25505111 Ry
     estimated scf accuracy    <       0.00001040 Ry

     iteration # 18     ecut=    50.00 Ry     beta=0.70
     Davidson diagonalization with overlap
     ethr =  1.30E-09,  avg # of iterations =  3.0

     negative rho (up, down):  1.974E+00 0.000E+00

     total cpu time spent up to now is     4911.9 secs

     total energy              =   -7425.25504868 Ry
     Harris-Foulkes estimate   =   -7425.25505227 Ry
     estimated scf accuracy    <       0.00001728 Ry

     iteration # 19     ecut=    50.00 Ry     beta=0.70
     Davidson diagonalization with overlap
     ethr =  1.30E-09,  avg # of iterations =  2.0

     negative rho (up, down):  1.974E+00 0.000E+00

     total cpu time spent up to now is     5092.8 secs

     total energy              =   -7425.25505030 Ry
     Harris-Foulkes estimate   =   -7425.25505102 Ry
     estimated scf accuracy    <       0.00000276 Ry

     iteration # 20     ecut=    50.00 Ry     beta=0.70
     Davidson diagonalization with overlap
     ethr =  3.45E-10,  avg # of iterations =  2.0

     negative rho (up, down):  1.974E+00 0.000E+00

     total cpu time spent up to now is     5269.9 secs

     total energy              =   -7425.25505061 Ry
     Harris-Foulkes estimate   =   -7425.25505090 Ry
     estimated scf accuracy    <       0.00000110 Ry

     iteration # 21     ecut=    50.00 Ry     beta=0.70
     Davidson diagonalization with overlap
     ethr =  1.38E-10,  avg # of iterations =  2.0

     negative rho (up, down):  1.974E+00 0.000E+00

     total cpu time spent up to now is     5459.4 secs

     total energy              =   -7425.25505075 Ry
     Harris-Foulkes estimate   =   -7425.25505083 Ry
     estimated scf accuracy    <       0.00000032 Ry

     iteration # 22     ecut=    50.00 Ry     beta=0.70
     Davidson diagonalization with overlap
     ethr =  3.94E-11,  avg # of iterations =  2.0

     negative rho (up, down):  1.974E+00 0.000E+00

     total cpu time spent up to now is     5642.9 secs

     total energy              =   -7425.25505079 Ry
     Harris-Foulkes estimate   =   -7425.25505083 Ry
     estimated scf accuracy    <       0.00000015 Ry

     iteration # 23     ecut=    50.00 Ry     beta=0.70
     Davidson diagonalization with overlap
     ethr =  1.89E-11,  avg # of iterations =  3.0

     negative rho (up, down):  1.974E+00 0.000E+00

     total cpu time spent up to now is     5834.6 secs

     total energy              =   -7425.25505079 Ry
     Harris-Foulkes estimate   =   -7425.25505084 Ry
     estimated scf accuracy    <       0.00000020 Ry

     iteration # 24     ecut=    50.00 Ry     beta=0.70
     Davidson diagonalization with overlap
     ethr =  1.89E-11,  avg # of iterations =  2.0

     negative rho (up, down):  1.974E+00 0.000E+00

     total cpu time spent up to now is     6017.0 secs

     total energy              =   -7425.25505082 Ry
     Harris-Foulkes estimate   =   -7425.25505082 Ry
     estimated scf accuracy    <       0.00000004 Ry

     iteration # 25     ecut=    50.00 Ry     beta=0.70
     Davidson diagonalization with overlap
     ethr =  4.90E-12,  avg # of iterations =  2.0

     negative rho (up, down):  1.973E+00 0.000E+00

     total cpu time spent up to now is     6189.1 secs

     total energy              =   -7425.25505082 Ry
     Harris-Foulkes estimate   =   -7425.25505082 Ry
     estimated scf accuracy    <       0.00000002 Ry

     iteration # 26     ecut=    50.00 Ry     beta=0.70
     Davidson diagonalization with overlap
     ethr =  3.10E-12,  avg # of iterations =  2.0

     negative rho (up, down):  1.973E+00 0.000E+00

     total cpu time spent up to now is     6360.5 secs

     End of self-consistent calculation

          k = 0.2500 0.2500 0.0833 (167653 PWs)   bands (ev):

   -19.7891  -7.6294  -6.9007  -6.3748  -6.3695  -5.9426  -5.5453  -5.4445
    -5.4377  -5.2452  -5.2432  -5.1540  -5.1241  -5.0460  -5.0307  -4.9533
    -4.8665  -4.8660  -4.8347  -4.8217  -4.6823  -4.6641  -4.6449  -4.6430
    -4.6362  -4.6155  -4.5818  -4.5739  -4.5685  -4.5533  -4.5321  -4.5190
    -4.4880  -4.4768  -4.4451  -4.4431  -4.4265  -4.3929  -4.3897  -4.3808
    -4.3789  -4.3728  -4.3595  -4.3451  -4.3189  -4.3021  -4.2978  -4.2930
    -4.2914  -4.2589  -4.2143  -4.1970  -4.1953  -4.1912  -4.1886  -4.1815
    -4.1791  -4.1771  -4.1521  -4.1186  -4.1128  -4.0629  -4.0523  -4.0510
    -4.0267  -4.0248  -4.0025  -4.0009  -3.9986  -3.9963  -3.9883  -3.9472
    -3.9385  -3.9347  -3.9323  -3.8308  -3.8271  -3.8200  -3.8166  -3.7894
    -3.7803  -3.7557  -3.7339  -3.7237  -3.7004  -3.6988  -3.6824  -3.6808
    -3.6714  -3.6660  -3.6116  -3.6100  -3.6048  -3.5734  -3.5713  -3.5702
    -3.5634  -3.5630  -3.5380  -3.5373  -3.5024  -3.4930  -3.4865  -3.4784
    -3.4503  -3.4427  -3.4318  -3.4028  -3.3982  -3.3642  -3.3604  -3.3271
    -3.3169  -3.3148  -3.3047  -3.3033  -3.2964  -3.2945  -3.2679  -3.2471
    -3.2120  -3.2088  -3.1992  -3.1904  -3.1888  -3.1849  -3.1668  -3.1657
    -3.1462  -3.1452  -3.1418  -3.1182  -3.1175  -3.1094  -3.1087  -3.1023
    -3.0690  -3.0684  -3.0366  -3.0307  -3.0300  -3.0276  -3.0244  -2.9468
    -2.9441  -2.9379  -2.9363  -2.9305  -2.9300  -2.9282  -2.9238  -2.9230
    -2.9223  -2.9143  -2.9063  -2.8949  -2.8908  -2.8851  -2.8797  -2.8735
    -2.8718  -2.8350  -2.8292  -2.8285  -2.8246  -2.8228  -2.8072  -2.8049
    -2.8008  -2.7981  -2.7931  -2.7456  -2.7386  -2.7358  -2.7307  -2.7265
    -2.7191  -2.6987  -2.6463  -2.6399  -2.6348  -2.6323  -2.6249  -2.6218
    -2.6161  -2.6084  -2.6055  -2.5800  -2.5752  -2.5683  -2.5642  -2.5600
    -2.5571  -2.5247  -2.5222  -2.5158  -2.5118  -2.5074  -2.5050  -2.4722
    -2.4547  -2.4391  -2.4031  -2.3917  -2.3836  -2.3766  -2.3652  -2.3628
    -2.3262  -2.3146  -2.2973  -2.2935  -2.2743  -2.2624  -2.2579  -2.2436
    -2.2385  -2.2313  -2.2067  -2.1992  -2.1787  -2.1686  -2.1599  -2.1542
    -2.1527  -2.1472  -2.1457  -2.1328  -2.1276  -2.1274  -2.1228  -2.1189
    -2.1164  -2.1144  -2.1086  -2.0950  -2.0889  -2.0865  -2.0857  -2.0801
    -2.0760  -2.0611  -2.0537  -2.0437  -2.0429  -2.0343  -2.0284  -1.9952
    -1.9720  -1.9637  -1.9508  -1.9299  -1.9162  -1.9098  -1.9005  -1.8900
    -1.8787  -1.8722  -1.8676  -1.8629  -1.8586  -1.8568  -1.8524  -1.8236
    -1.8221  -1.8187  -1.7853  -1.7788  -1.7516  -1.7353  -1.7288  -1.6916
    -1.6821  -1.6734  -1.6574  -1.6476  -1.6463  -1.6366  -1.6235  -1.6136
    -1.6130  -1.6100  -1.6055  -1.6048  -1.6034  -1.6004  -1.5875  -1.5796
    -1.5647  -1.5612  -1.5552  -1.5429  -1.5334  -1.5109  -1.5052  -1.5047
    -1.5036  -1.4978  -1.4894  -1.4732  -1.4651  -1.4577  -1.4517  -1.4438
    -1.4281  -1.4206  -1.4166  -1.4006  -1.3923  -1.3883  -1.3781  -1.3516
    -1.3459  -1.3404  -1.3401  -1.3354  -1.3237  -1.3143  -1.3097  -1.3037
    -1.2914  -1.2896  -1.2846  -1.2787  -1.2766  -1.2678  -1.2658  -1.2546
    -1.2466  -1.2459  -1.2430  -1.2334  -1.2235  -1.2209  -1.2183  -1.1829
    -1.1775  -1.1761  -1.1706  -1.1702  -1.1671  -1.1375  -1.1175  -1.1147
    -1.1134  -1.1121  -1.1085  -1.1060  -1.0999  -1.0897  -1.0830  -1.0557
    -1.0480  -1.0473  -1.0437  -1.0258  -1.0246  -1.0142  -0.9890  -0.9764
    -0.9545  -0.9480  -0.9248  -0.9222  -0.9183  -0.9175  -0.9136  -0.9084
    -0.9074  -0.9066  -0.9012  -0.8991  -0.8711  -0.8703  -0.8519  -0.8504
    -0.8454  -0.8444  -0.8420  -0.8264  -0.8189  -0.5608  -0.5361  -0.4814
    -0.4595  -0.4435  -0.2846  -0.2211  -0.2181  -0.1720   0.0993   0.1089
     0.4316   0.4468   0.5271   0.5297   0.5697   0.5716   0.7154   0.7303
     0.8357   0.8416   0.9408   1.5272   1.5413   1.5442   1.5748   1.5898
     1.6356   1.6503   1.7144   1.7241   1.9191   1.9213   2.1635   2.2371
     2.2409   2.2526   2.6353   2.6447   2.7022   2.7068   2.7123   2.7158
     2.8625   2.8650   2.9229   3.0108   3.0215   3.2417   3.2485   3.3722
     3.4023   3.4050   3.6746   3.6821   3.7928   3.8044   3.8064   3.8938
     3.8964   3.9833   3.9940   4.2241   4.2306   4.3196   4.3244   4.4348
     4.4480   4.4699   4.4791   4.6426   5.2765   5.2881   5.3680   5.3758
     5.3802   5.5522   5.5563   5.6234   5.6601   5.6752   5.6810   5.7099
     5.7196   5.7345   5.7387   5.7651   6.0127   6.0382   6.0415   6.0591
     6.0646   6.0688   6.0727   6.0790   6.1601   6.1678   6.1797   6.1821

          k = 0.2500 0.2500-0.2500 (167588 PWs)   bands (ev):

   -19.7891  -7.6294  -6.9007  -6.3748  -6.3695  -5.9426  -5.5453  -5.4445
    -5.4377  -5.2452  -5.2432  -5.1540  -5.1241  -5.0460  -5.0307  -4.9533
    -4.8665  -4.8660  -4.8347  -4.8217  -4.6823  -4.6641  -4.6449  -4.6430
    -4.6362  -4.6155  -4.5818  -4.5739  -4.5685  -4.5533  -4.5321  -4.5190
    -4.4880  -4.4768  -4.4451  -4.4431  -4.4265  -4.3929  -4.3897  -4.3808
    -4.3789  -4.3728  -4.3595  -4.3451  -4.3189  -4.3021  -4.2978  -4.2930
    -4.2914  -4.2589  -4.2143  -4.1970  -4.1953  -4.1912  -4.1886  -4.1815
    -4.1791  -4.1771  -4.1521  -4.1186  -4.1128  -4.0629  -4.0523  -4.0510
    -4.0267  -4.0248  -4.0025  -4.0009  -3.9986  -3.9963  -3.9883  -3.9472
    -3.9385  -3.9347  -3.9323  -3.8308  -3.8271  -3.8201  -3.8166  -3.7894
    -3.7803  -3.7557  -3.7339  -3.7237  -3.7004  -3.6988  -3.6824  -3.6808
    -3.6714  -3.6660  -3.6116  -3.6100  -3.6048  -3.5734  -3.5714  -3.5702
    -3.5634  -3.5630  -3.5380  -3.5373  -3.5023  -3.4929  -3.4865  -3.4784
    -3.4503  -3.4427  -3.4318  -3.4028  -3.3981  -3.3642  -3.3604  -3.3271
    -3.3169  -3.3148  -3.3047  -3.3033  -3.2964  -3.2945  -3.2679  -3.2471
    -3.2120  -3.2088  -3.1991  -3.1904  -3.1888  -3.1849  -3.1668  -3.1657
    -3.1462  -3.1452  -3.1418  -3.1182  -3.1175  -3.1094  -3.1087  -3.1023
    -3.0690  -3.0684  -3.0366  -3.0307  -3.0300  -3.0276  -3.0244  -2.9468
    -2.9441  -2.9379  -2.9363  -2.9305  -2.9300  -2.9282  -2.9238  -2.9230
    -2.9223  -2.9143  -2.9063  -2.8950  -2.8908  -2.8851  -2.8797  -2.8735
    -2.8718  -2.8350  -2.8292  -2.8285  -2.8246  -2.8228  -2.8072  -2.8049
    -2.8008  -2.7981  -2.7932  -2.7456  -2.7386  -2.7358  -2.7307  -2.7264
    -2.7191  -2.6987  -2.6463  -2.6399  -2.6348  -2.6323  -2.6249  -2.6218
    -2.6161  -2.6084  -2.6055  -2.5800  -2.5752  -2.5683  -2.5642  -2.5600
    -2.5571  -2.5247  -2.5222  -2.5158  -2.5118  -2.5074  -2.5050  -2.4722
    -2.4547  -2.4391  -2.4031  -2.3917  -2.3836  -2.3766  -2.3652  -2.3628
    -2.3262  -2.3146  -2.2973  -2.2935  -2.2743  -2.2624  -2.2579  -2.2436
    -2.2385  -2.2313  -2.2067  -2.1992  -2.1787  -2.1686  -2.1599  -2.1542
    -2.1527  -2.1472  -2.1457  -2.1328  -2.1276  -2.1274  -2.1228  -2.1189
    -2.1164  -2.1144  -2.1086  -2.0950  -2.0889  -2.0865  -2.0857  -2.0801
    -2.0760  -2.0611  -2.0537  -2.0437  -2.0429  -2.0343  -2.0284  -1.9952
    -1.9720  -1.9637  -1.9508  -1.9299  -1.9162  -1.9098  -1.9005  -1.8900
    -1.8787  -1.8722  -1.8676  -1.8629  -1.8586  -1.8568  -1.8524  -1.8236
    -1.8221  -1.8187  -1.7853  -1.7788  -1.7516  -1.7353  -1.7288  -1.6916
    -1.6821  -1.6734  -1.6574  -1.6476  -1.6463  -1.6366  -1.6235  -1.6136
    -1.6130  -1.6100  -1.6055  -1.6048  -1.6034  -1.6004  -1.5875  -1.5796
    -1.5648  -1.5612  -1.5552  -1.5429  -1.5334  -1.5109  -1.5052  -1.5047
    -1.5036  -1.4978  -1.4894  -1.4732  -1.4651  -1.4577  -1.4517  -1.4438
    -1.4281  -1.4206  -1.4166  -1.4006  -1.3923  -1.3883  -1.3781  -1.3516
    -1.3459  -1.3404  -1.3401  -1.3354  -1.3237  -1.3143  -1.3097  -1.3037
    -1.2914  -1.2896  -1.2846  -1.2787  -1.2766  -1.2678  -1.2658  -1.2546
    -1.2466  -1.2459  -1.2430  -1.2334  -1.2235  -1.2209  -1.2183  -1.1829
    -1.1775  -1.1761  -1.1706  -1.1702  -1.1671  -1.1375  -1.1175  -1.1146
    -1.1133  -1.1121  -1.1085  -1.1060  -1.0999  -1.0897  -1.0830  -1.0557
    -1.0480  -1.0473  -1.0437  -1.0258  -1.0246  -1.0142  -0.9890  -0.9764
    -0.9545  -0.9480  -0.9248  -0.9222  -0.9183  -0.9175  -0.9136  -0.9084
    -0.9074  -0.9066  -0.9012  -0.8991  -0.8711  -0.8703  -0.8519  -0.8504
    -0.8454  -0.8444  -0.8420  -0.8264  -0.8189  -0.5608  -0.5361  -0.4813
    -0.4595  -0.4435  -0.2846  -0.2211  -0.2181  -0.1720   0.0993   0.1089
     0.4316   0.4468   0.5271   0.5297   0.5697   0.5716   0.7154   0.7303
     0.8357   0.8416   0.9408   1.5272   1.5413   1.5442   1.5748   1.5899
     1.6356   1.6503   1.7144   1.7241   1.9191   1.9213   2.1635   2.2371
     2.2409   2.2526   2.6353   2.6447   2.7022   2.7068   2.7123   2.7158
     2.8625   2.8650   2.9230   3.0108   3.0215   3.2417   3.2485   3.3722
     3.4023   3.4050   3.6746   3.6821   3.7928   3.8044   3.8064   3.8938
     3.8964   3.9833   3.9940   4.2241   4.2306   4.3196   4.3244   4.4348
     4.4480   4.4699   4.4791   4.6427   5.2763   5.2882   5.3513   5.3680
     5.3798   5.5522   5.5563   5.6222   5.6600   5.6753   5.7081   5.7127
     5.7184   5.7261   5.7642   5.7844   6.0127   6.0381   6.0414   6.0593
     6.0647   6.0688   6.0727   6.0790   6.1464   6.1610   6.1687   6.2952

          k =-0.2500-0.2500 0.0833 (167653 PWs)   bands (ev):

   -19.7891  -7.6294  -6.9007  -6.3748  -6.3695  -5.9426  -5.5453  -5.4445
    -5.4377  -5.2452  -5.2432  -5.1540  -5.1241  -5.0460  -5.0307  -4.9533
    -4.8665  -4.8660  -4.8347  -4.8217  -4.6823  -4.6641  -4.6449  -4.6430
    -4.6362  -4.6155  -4.5818  -4.5739  -4.5685  -4.5533  -4.5321  -4.5190
    -4.4880  -4.4768  -4.4451  -4.4431  -4.4265  -4.3929  -4.3897  -4.3808
    -4.3789  -4.3728  -4.3595  -4.3451  -4.3189  -4.3021  -4.2978  -4.2930
    -4.2914  -4.2589  -4.2143  -4.1970  -4.1953  -4.1912  -4.1886  -4.1815
    -4.1791  -4.1771  -4.1521  -4.1186  -4.1128  -4.0629  -4.0523  -4.0510
    -4.0267  -4.0248  -4.0025  -4.0009  -3.9986  -3.9963  -3.9883  -3.9472
    -3.9385  -3.9347  -3.9323  -3.8308  -3.8271  -3.8200  -3.8166  -3.7894
    -3.7803  -3.7557  -3.7339  -3.7237  -3.7004  -3.6988  -3.6824  -3.6808
    -3.6714  -3.6660  -3.6116  -3.6100  -3.6048  -3.5734  -3.5713  -3.5702
    -3.5634  -3.5630  -3.5380  -3.5373  -3.5024  -3.4930  -3.4865  -3.4784
    -3.4503  -3.4427  -3.4318  -3.4028  -3.3982  -3.3642  -3.3604  -3.3271
    -3.3169  -3.3148  -3.3047  -3.3033  -3.2964  -3.2945  -3.2679  -3.2471
    -3.2120  -3.2088  -3.1992  -3.1904  -3.1888  -3.1849  -3.1668  -3.1657
    -3.1462  -3.1452  -3.1418  -3.1182  -3.1175  -3.1094  -3.1087  -3.1023
    -3.0690  -3.0684  -3.0366  -3.0307  -3.0300  -3.0276  -3.0244  -2.9468
    -2.9441  -2.9379  -2.9363  -2.9305  -2.9300  -2.9282  -2.9238  -2.9230
    -2.9223  -2.9143  -2.9063  -2.8949  -2.8908  -2.8851  -2.8797  -2.8735
    -2.8718  -2.8350  -2.8292  -2.8285  -2.8246  -2.8228  -2.8072  -2.8049
    -2.8008  -2.7981  -2.7931  -2.7456  -2.7386  -2.7358  -2.7307  -2.7265
    -2.7191  -2.6987  -2.6463  -2.6399  -2.6348  -2.6323  -2.6249  -2.6218
    -2.6161  -2.6084  -2.6055  -2.5800  -2.5752  -2.5683  -2.5642  -2.5600
    -2.5571  -2.5247  -2.5222  -2.5158  -2.5118  -2.5074  -2.5050  -2.4722
    -2.4547  -2.4391  -2.4031  -2.3917  -2.3836  -2.3766  -2.3652  -2.3628
    -2.3262  -2.3146  -2.2973  -2.2935  -2.2743  -2.2624  -2.2579  -2.2436
    -2.2385  -2.2313  -2.2067  -2.1992  -2.1787  -2.1686  -2.1599  -2.1542
    -2.1527  -2.1472  -2.1457  -2.1328  -2.1276  -2.1274  -2.1228  -2.1189
    -2.1164  -2.1144  -2.1086  -2.0950  -2.0889  -2.0865  -2.0857  -2.0801
    -2.0760  -2.0611  -2.0537  -2.0437  -2.0429  -2.0343  -2.0284  -1.9952
    -1.9720  -1.9637  -1.9508  -1.9299  -1.9162  -1.9098  -1.9005  -1.8900
    -1.8787  -1.8722  -1.8676  -1.8629  -1.8586  -1.8568  -1.8524  -1.8236
    -1.8221  -1.8187  -1.7853  -1.7788  -1.7516  -1.7353  -1.7288  -1.6916
    -1.6821  -1.6734  -1.6574  -1.6476  -1.6463  -1.6366  -1.6235  -1.6136
    -1.6130  -1.6100  -1.6055  -1.6048  -1.6034  -1.6004  -1.5875  -1.5796
    -1.5647  -1.5612  -1.5552  -1.5429  -1.5334  -1.5109  -1.5052  -1.5047
    -1.5036  -1.4978  -1.4894  -1.4732  -1.4651  -1.4577  -1.4517  -1.4438
    -1.4281  -1.4206  -1.4166  -1.4006  -1.3923  -1.3883  -1.3781  -1.3516
    -1.3459  -1.3404  -1.3401  -1.3354  -1.3237  -1.3143  -1.3097  -1.3037
    -1.2914  -1.2896  -1.2846  -1.2787  -1.2766  -1.2678  -1.2658  -1.2546
    -1.2466  -1.2459  -1.2430  -1.2334  -1.2235  -1.2209  -1.2183  -1.1829
    -1.1775  -1.1761  -1.1706  -1.1702  -1.1671  -1.1375  -1.1175  -1.1147
    -1.1134  -1.1121  -1.1085  -1.1060  -1.0999  -1.0897  -1.0830  -1.0557
    -1.0480  -1.0473  -1.0437  -1.0258  -1.0246  -1.0142  -0.9890  -0.9764
    -0.9545  -0.9480  -0.9248  -0.9222  -0.9183  -0.9175  -0.9136  -0.9084
    -0.9074  -0.9066  -0.9012  -0.8991  -0.8711  -0.8703  -0.8519  -0.8504
    -0.8454  -0.8444  -0.8420  -0.8264  -0.8189  -0.5608  -0.5361  -0.4814
    -0.4595  -0.4435  -0.2846  -0.2211  -0.2181  -0.1720   0.0993   0.1089
     0.4316   0.4468   0.5271   0.5297   0.5697   0.5716   0.7154   0.7303
     0.8357   0.8416   0.9408   1.5272   1.5413   1.5442   1.5748   1.5898
     1.6356   1.6503   1.7144   1.7241   1.9191   1.9213   2.1635   2.2371
     2.2409   2.2526   2.6353   2.6447   2.7022   2.7068   2.7123   2.7158
     2.8625   2.8650   2.9229   3.0108   3.0215   3.2417   3.2485   3.3722
     3.4023   3.4050   3.6746   3.6821   3.7928   3.8044   3.8064   3.8938
     3.8964   3.9833   3.9940   4.2241   4.2306   4.3196   4.3244   4.4348
     4.4480   4.4699   4.4791   4.6426   5.2765   5.2881   5.3680   5.3758
     5.3802   5.5522   5.5563   5.6234   5.6601   5.6752   5.6809   5.7099
     5.7197   5.7344   5.7387   5.7651   6.0126   6.0382   6.0415   6.0591
     6.0646   6.0687   6.0727   6.0790   6.1600   6.1680   6.1797   6.1820

          k =-0.2500 0.2500-0.0833 (167653 PWs)   bands (ev):

   -19.7891  -7.6294  -6.9007  -6.3752  -6.3692  -5.9425  -5.5452  -5.4447
    -5.4374  -5.2454  -5.2433  -5.1548  -5.1238  -5.0459  -5.0302  -4.9529
    -4.8674  -4.8661  -4.8356  -4.8216  -4.6810  -4.6641  -4.6450  -4.6428
    -4.6362  -4.6147  -4.5818  -4.5736  -4.5682  -4.5537  -4.5321  -4.5186
    -4.4883  -4.4768  -4.4450  -4.4432  -4.4276  -4.3926  -4.3894  -4.3809
    -4.3790  -4.3728  -4.3595  -4.3448  -4.3195  -4.3023  -4.2978  -4.2929
    -4.2914  -4.2594  -4.2146  -4.1972  -4.1951  -4.1910  -4.1887  -4.1819
    -4.1791  -4.1770  -4.1513  -4.1188  -4.1125  -4.0625  -4.0532  -4.0515
    -4.0268  -4.0249  -4.0022  -4.0013  -3.9984  -3.9962  -3.9877  -3.9472
    -3.9385  -3.9345  -3.9320  -3.8306  -3.8267  -3.8197  -3.8170  -3.7893
    -3.7804  -3.7557  -3.7341  -3.7234  -3.7001  -3.6991  -3.6826  -3.6807
    -3.6711  -3.6656  -3.6117  -3.6101  -3.6054  -3.5734  -3.5712  -3.5705
    -3.5635  -3.5630  -3.5379  -3.5372  -3.5026  -3.4927  -3.4867  -3.4779
    -3.4506  -3.4423  -3.4318  -3.4033  -3.3981  -3.3643  -3.3602  -3.3266
    -3.3169  -3.3148  -3.3044  -3.3032  -3.2964  -3.2945  -3.2679  -3.2470
    -3.2121  -3.2088  -3.1990  -3.1902  -3.1889  -3.1853  -3.1663  -3.1657
    -3.1469  -3.1451  -3.1415  -3.1186  -3.1177  -3.1093  -3.1090  -3.1021
    -3.0694  -3.0686  -3.0362  -3.0303  -3.0300  -3.0275  -3.0244  -2.9470
    -2.9444  -2.9379  -2.9365  -2.9302  -2.9299  -2.9285  -2.9238  -2.9230
    -2.9223  -2.9143  -2.9064  -2.8947  -2.8915  -2.8851  -2.8799  -2.8735
    -2.8721  -2.8347  -2.8293  -2.8287  -2.8241  -2.8224  -2.8072  -2.8047
    -2.8012  -2.7979  -2.7932  -2.7457  -2.7391  -2.7360  -2.7309  -2.7264
    -2.7191  -2.6984  -2.6473  -2.6399  -2.6348  -2.6324  -2.6253  -2.6217
    -2.6159  -2.6084  -2.6056  -2.5796  -2.5748  -2.5677  -2.5639  -2.5599
    -2.5568  -2.5245  -2.5217  -2.5146  -2.5117  -2.5078  -2.5049  -2.4698
    -2.4538  -2.4394  -2.4027  -2.3926  -2.3837  -2.3767  -2.3652  -2.3627
    -2.3255  -2.3142  -2.2979  -2.2935  -2.2760  -2.2622  -2.2579  -2.2434
    -2.2387  -2.2314  -2.2068  -2.1998  -2.1804  -2.1685  -2.1609  -2.1541
    -2.1525  -2.1483  -2.1453  -2.1336  -2.1278  -2.1270  -2.1224  -2.1185
    -2.1164  -2.1147  -2.1078  -2.0948  -2.0893  -2.0866  -2.0862  -2.0803
    -2.0758  -2.0614  -2.0531  -2.0440  -2.0430  -2.0344  -2.0282  -1.9952
    -1.9763  -1.9637  -1.9537  -1.9298  -1.9158  -1.9097  -1.8990  -1.8894
    -1.8788  -1.8732  -1.8680  -1.8625  -1.8588  -1.8567  -1.8521  -1.8235
    -1.8220  -1.8189  -1.7842  -1.7782  -1.7526  -1.7346  -1.7234  -1.6916
    -1.6830  -1.6744  -1.6564  -1.6475  -1.6465  -1.6372  -1.6229  -1.6147
    -1.6120  -1.6096  -1.6054  -1.6051  -1.6035  -1.6002  -1.5879  -1.5794
    -1.5654  -1.5618  -1.5546  -1.5425  -1.5304  -1.5118  -1.5051  -1.5042
    -1.5031  -1.4983  -1.4911  -1.4729  -1.4652  -1.4559  -1.4517  -1.4438
    -1.4300  -1.4205  -1.4171  -1.3997  -1.3929  -1.3879  -1.3792  -1.3528
    -1.3455  -1.3403  -1.3400  -1.3346  -1.3245  -1.3151  -1.3094  -1.3031
    -1.2915  -1.2892  -1.2849  -1.2783  -1.2759  -1.2686  -1.2658  -1.2546
    -1.2475  -1.2461  -1.2432  -1.2342  -1.2233  -1.2204  -1.2175  -1.1827
    -1.1782  -1.1768  -1.1705  -1.1700  -1.1664  -1.1371  -1.1178  -1.1146
    -1.1131  -1.1122  -1.1068  -1.1056  -1.0989  -1.0895  -1.0830  -1.0550
    -1.0489  -1.0472  -1.0442  -1.0261  -1.0246  -1.0141  -0.9882  -0.9765
    -0.9549  -0.9477  -0.9255  -0.9222  -0.9179  -0.9174  -0.9137  -0.9086
    -0.9076  -0.9070  -0.9010  -0.8991  -0.8713  -0.8699  -0.8510  -0.8501
    -0.8451  -0.8446  -0.8414  -0.8263  -0.8206  -0.5609  -0.5361  -0.4801
    -0.4603  -0.4436  -0.2859  -0.2221  -0.2177  -0.1724   0.1004   0.1081
     0.4327   0.4457   0.5265   0.5299   0.5683   0.5719   0.7172   0.7291
     0.8359   0.8418   0.9407   1.5266   1.5413   1.5447   1.5767   1.5899
     1.6377   1.6485   1.7155   1.7225   1.9188   1.9213   2.1643   2.2381
     2.2397   2.2525   2.6370   2.6446   2.7030   2.7062   2.7116   2.7161
     2.8621   2.8653   2.9238   3.0122   3.0171   3.2422   3.2448   3.3721
     3.4036   3.4041   3.6757   3.6800   3.7949   3.8041   3.8069   3.8909
     3.8984   3.9813   3.9946   4.2227   4.2314   4.3215   4.3230   4.4369
     4.4466   4.4719   4.4815   4.6452   5.2788   5.2899   5.3692   5.3727
     5.3779   5.5509   5.5547   5.6233   5.6621   5.6754   5.6807   5.7039
     5.7196   5.7323   5.7416   5.7643   6.0185   6.0284   6.0420   6.0581
     6.0644   6.0684   6.0744   6.0790   6.1613   6.1668   6.1780   6.1835

          k = 0.2500-0.2500-0.0833 (167653 PWs)   bands (ev):

   -19.7891  -7.6294  -6.9007  -6.3752  -6.3692  -5.9425  -5.5452  -5.4447
    -5.4374  -5.2454  -5.2433  -5.1548  -5.1238  -5.0459  -5.0302  -4.9529
    -4.8674  -4.8661  -4.8356  -4.8216  -4.6810  -4.6641  -4.6450  -4.6428
    -4.6362  -4.6147  -4.5818  -4.5736  -4.5682  -4.5537  -4.5321  -4.5186
    -4.4883  -4.4768  -4.4450  -4.4432  -4.4276  -4.3926  -4.3894  -4.3809
    -4.3790  -4.3728  -4.3595  -4.3448  -4.3195  -4.3023  -4.2978  -4.2929
    -4.2914  -4.2594  -4.2146  -4.1972  -4.1951  -4.1910  -4.1887  -4.1819
    -4.1791  -4.1770  -4.1513  -4.1188  -4.1125  -4.0625  -4.0532  -4.0515
    -4.0268  -4.0249  -4.0022  -4.0013  -3.9984  -3.9962  -3.9877  -3.9472
    -3.9385  -3.9345  -3.9320  -3.8306  -3.8267  -3.8197  -3.8170  -3.7893
    -3.7804  -3.7557  -3.7341  -3.7234  -3.7001  -3.6991  -3.6826  -3.6807
    -3.6711  -3.6656  -3.6117  -3.6101  -3.6054  -3.5734  -3.5712  -3.5705
    -3.5635  -3.5630  -3.5379  -3.5372  -3.5026  -3.4927  -3.4867  -3.4779
    -3.4506  -3.4423  -3.4318  -3.4033  -3.3981  -3.3643  -3.3602  -3.3266
    -3.3169  -3.3148  -3.3044  -3.3032  -3.2964  -3.2945  -3.2679  -3.2470
    -3.2121  -3.2088  -3.1990  -3.1902  -3.1889  -3.1853  -3.1663  -3.1657
    -3.1469  -3.1451  -3.1415  -3.1186  -3.1177  -3.1093  -3.1090  -3.1021
    -3.0694  -3.0686  -3.0362  -3.0303  -3.0300  -3.0275  -3.0244  -2.9470
    -2.9444  -2.9379  -2.9365  -2.9302  -2.9299  -2.9285  -2.9238  -2.9230
    -2.9223  -2.9143  -2.9064  -2.8947  -2.8915  -2.8851  -2.8799  -2.8735
    -2.8721  -2.8347  -2.8293  -2.8287  -2.8241  -2.8224  -2.8072  -2.8047
    -2.8012  -2.7979  -2.7932  -2.7457  -2.7391  -2.7360  -2.7309  -2.7264
    -2.7191  -2.6984  -2.6473  -2.6399  -2.6348  -2.6324  -2.6253  -2.6217
    -2.6159  -2.6084  -2.6056  -2.5796  -2.5748  -2.5677  -2.5639  -2.5599
    -2.5568  -2.5245  -2.5217  -2.5146  -2.5117  -2.5078  -2.5049  -2.4698
    -2.4538  -2.4394  -2.4027  -2.3926  -2.3837  -2.3767  -2.3652  -2.3627
    -2.3255  -2.3142  -2.2979  -2.2935  -2.2760  -2.2622  -2.2579  -2.2434
    -2.2387  -2.2314  -2.2068  -2.1998  -2.1804  -2.1685  -2.1609  -2.1541
    -2.1525  -2.1483  -2.1453  -2.1336  -2.1278  -2.1270  -2.1224  -2.1185
    -2.1164  -2.1147  -2.1078  -2.0948  -2.0893  -2.0866  -2.0862  -2.0803
    -2.0758  -2.0614  -2.0531  -2.0440  -2.0430  -2.0344  -2.0282  -1.9952
    -1.9763  -1.9637  -1.9537  -1.9298  -1.9158  -1.9097  -1.8990  -1.8894
    -1.8788  -1.8732  -1.8680  -1.8625  -1.8588  -1.8567  -1.8521  -1.8235
    -1.8220  -1.8189  -1.7842  -1.7782  -1.7526  -1.7346  -1.7234  -1.6916
    -1.6830  -1.6744  -1.6564  -1.6475  -1.6465  -1.6372  -1.6229  -1.6147
    -1.6120  -1.6096  -1.6054  -1.6051  -1.6035  -1.6002  -1.5879  -1.5794
    -1.5654  -1.5618  -1.5546  -1.5425  -1.5304  -1.5118  -1.5051  -1.5042
    -1.5031  -1.4983  -1.4911  -1.4729  -1.4652  -1.4559  -1.4517  -1.4438
    -1.4300  -1.4205  -1.4171  -1.3997  -1.3929  -1.3879  -1.3792  -1.3528
    -1.3455  -1.3403  -1.3400  -1.3346  -1.3245  -1.3151  -1.3094  -1.3031
    -1.2915  -1.2892  -1.2849  -1.2783  -1.2759  -1.2686  -1.2658  -1.2546
    -1.2475  -1.2461  -1.2432  -1.2342  -1.2233  -1.2204  -1.2175  -1.1827
    -1.1782  -1.1768  -1.1705  -1.1700  -1.1664  -1.1371  -1.1178  -1.1146
    -1.1131  -1.1122  -1.1068  -1.1056  -1.0989  -1.0895  -1.0830  -1.0550
    -1.0489  -1.0472  -1.0442  -1.0261  -1.0246  -1.0141  -0.9882  -0.9765
    -0.9549  -0.9477  -0.9255  -0.9222  -0.9179  -0.9174  -0.9137  -0.9086
    -0.9076  -0.9070  -0.9010  -0.8991  -0.8713  -0.8699  -0.8510  -0.8501
    -0.8451  -0.8446  -0.8414  -0.8263  -0.8206  -0.5609  -0.5361  -0.4801
    -0.4603  -0.4436  -0.2859  -0.2221  -0.2177  -0.1724   0.1004   0.1081
     0.4327   0.4457   0.5265   0.5299   0.5683   0.5719   0.7172   0.7291
     0.8359   0.8418   0.9407   1.5266   1.5413   1.5447   1.5767   1.5899
     1.6377   1.6485   1.7155   1.7225   1.9188   1.9213   2.1643   2.2381
     2.2397   2.2525   2.6370   2.6446   2.7030   2.7062   2.7116   2.7161
     2.8621   2.8653   2.9238   3.0122   3.0171   3.2422   3.2448   3.3721
     3.4036   3.4041   3.6757   3.6800   3.7949   3.8041   3.8069   3.8909
     3.8984   3.9813   3.9946   4.2227   4.2314   4.3215   4.3230   4.4369
     4.4466   4.4719   4.4815   4.6452   5.2788   5.2899   5.3691   5.3727
     5.3779   5.5509   5.5547   5.6233   5.6621   5.6753   5.6808   5.7039
     5.7196   5.7324   5.7415   5.7643   6.0185   6.0284   6.0420   6.0581
     6.0644   6.0684   6.0744   6.0790   6.1613   6.1669   6.1780   6.1835

          k =-0.2500 0.2500 0.2500 (167588 PWs)   bands (ev):

   -19.7891  -7.6294  -6.9007  -6.3752  -6.3692  -5.9425  -5.5452  -5.4447
    -5.4374  -5.2454  -5.2433  -5.1548  -5.1238  -5.0459  -5.0302  -4.9529
    -4.8674  -4.8661  -4.8356  -4.8216  -4.6810  -4.6641  -4.6450  -4.6428
    -4.6362  -4.6147  -4.5818  -4.5736  -4.5682  -4.5537  -4.5321  -4.5186
    -4.4883  -4.4768  -4.4450  -4.4432  -4.4276  -4.3926  -4.3894  -4.3809
    -4.3790  -4.3728  -4.3595  -4.3448  -4.3195  -4.3023  -4.2978  -4.2929
    -4.2914  -4.2594  -4.2146  -4.1972  -4.1951  -4.1910  -4.1887  -4.1819
    -4.1791  -4.1770  -4.1513  -4.1188  -4.1125  -4.0625  -4.0532  -4.0515
    -4.0268  -4.0249  -4.0022  -4.0013  -3.9984  -3.9963  -3.9877  -3.9472
    -3.9385  -3.9345  -3.9320  -3.8306  -3.8267  -3.8197  -3.8170  -3.7893
    -3.7804  -3.7557  -3.7341  -3.7234  -3.7001  -3.6991  -3.6826  -3.6807
    -3.6711  -3.6656  -3.6117  -3.6101  -3.6054  -3.5734  -3.5712  -3.5705
    -3.5635  -3.5630  -3.5379  -3.5372  -3.5025  -3.4927  -3.4866  -3.4779
    -3.4506  -3.4423  -3.4318  -3.4033  -3.3981  -3.3643  -3.3601  -3.3266
    -3.3169  -3.3148  -3.3044  -3.3032  -3.2964  -3.2945  -3.2679  -3.2470
    -3.2121  -3.2088  -3.1990  -3.1902  -3.1889  -3.1853  -3.1664  -3.1657
    -3.1469  -3.1451  -3.1415  -3.1186  -3.1177  -3.1093  -3.1090  -3.1021
    -3.0694  -3.0686  -3.0362  -3.0303  -3.0300  -3.0275  -3.0244  -2.9470
    -2.9444  -2.9379  -2.9365  -2.9302  -2.9299  -2.9285  -2.9238  -2.9230
    -2.9223  -2.9143  -2.9064  -2.8947  -2.8915  -2.8851  -2.8799  -2.8735
    -2.8721  -2.8347  -2.8293  -2.8286  -2.8241  -2.8224  -2.8072  -2.8047
    -2.8012  -2.7979  -2.7932  -2.7457  -2.7391  -2.7360  -2.7309  -2.7264
    -2.7191  -2.6984  -2.6473  -2.6400  -2.6348  -2.6324  -2.6253  -2.6217
    -2.6159  -2.6084  -2.6056  -2.5796  -2.5748  -2.5677  -2.5638  -2.5599
    -2.5568  -2.5245  -2.5217  -2.5146  -2.5117  -2.5078  -2.5049  -2.4698
    -2.4538  -2.4394  -2.4027  -2.3926  -2.3837  -2.3768  -2.3652  -2.3627
    -2.3255  -2.3142  -2.2979  -2.2935  -2.2760  -2.2622  -2.2579  -2.2434
    -2.2387  -2.2314  -2.2068  -2.1998  -2.1804  -2.1685  -2.1609  -2.1541
    -2.1525  -2.1483  -2.1453  -2.1336  -2.1278  -2.1270  -2.1224  -2.1185
    -2.1164  -2.1147  -2.1078  -2.0948  -2.0893  -2.0866  -2.0862  -2.0803
    -2.0758  -2.0614  -2.0531  -2.0440  -2.0430  -2.0344  -2.0282  -1.9952
    -1.9763  -1.9637  -1.9537  -1.9298  -1.9158  -1.9097  -1.8990  -1.8894
    -1.8788  -1.8732  -1.8680  -1.8625  -1.8588  -1.8567  -1.8521  -1.8235
    -1.8220  -1.8189  -1.7842  -1.7782  -1.7526  -1.7346  -1.7234  -1.6916
    -1.6830  -1.6744  -1.6564  -1.6475  -1.6465  -1.6372  -1.6229  -1.6147
    -1.6120  -1.6096  -1.6054  -1.6050  -1.6035  -1.6002  -1.5879  -1.5794
    -1.5654  -1.5618  -1.5546  -1.5425  -1.5304  -1.5118  -1.5051  -1.5042
    -1.5031  -1.4983  -1.4911  -1.4729  -1.4652  -1.4559  -1.4517  -1.4438
    -1.4300  -1.4205  -1.4171  -1.3997  -1.3929  -1.3879  -1.3792  -1.3528
    -1.3455  -1.3403  -1.3400  -1.3346  -1.3245  -1.3151  -1.3094  -1.3031
    -1.2915  -1.2892  -1.2849  -1.2783  -1.2759  -1.2686  -1.2658  -1.2546
    -1.2475  -1.2461  -1.2432  -1.2342  -1.2233  -1.2204  -1.2175  -1.1827
    -1.1782  -1.1768  -1.1705  -1.1700  -1.1664  -1.1371  -1.1178  -1.1146
    -1.1131  -1.1122  -1.1068  -1.1056  -1.0989  -1.0895  -1.0830  -1.0550
    -1.0489  -1.0472  -1.0442  -1.0261  -1.0246  -1.0141  -0.9882  -0.9765
    -0.9549  -0.9477  -0.9255  -0.9222  -0.9179  -0.9174  -0.9137  -0.9086
    -0.9076  -0.9070  -0.9010  -0.8991  -0.8713  -0.8699  -0.8510  -0.8501
    -0.8451  -0.8446  -0.8414  -0.8263  -0.8206  -0.5609  -0.5361  -0.4801
    -0.4603  -0.4436  -0.2859  -0.2221  -0.2177  -0.1724   0.1004   0.1081
     0.4327   0.4457   0.5265   0.5299   0.5683   0.5719   0.7172   0.7291
     0.8359   0.8418   0.9407   1.5266   1.5413   1.5447   1.5767   1.5899
     1.6377   1.6485   1.7155   1.7225   1.9188   1.9213   2.1643   2.2381
     2.2397   2.2526   2.6370   2.6446   2.7030   2.7062   2.7116   2.7161
     2.8621   2.8653   2.9238   3.0122   3.0171   3.2422   3.2449   3.3721
     3.4036   3.4042   3.6757   3.6800   3.7949   3.8041   3.8069   3.8910
     3.8984   3.9813   3.9946   4.2227   4.2314   4.3215   4.3230   4.4369
     4.4466   4.4719   4.4815   4.6453   5.2786   5.2900   5.3511   5.3692
     5.3745   5.5509   5.5546   5.6221   5.6619   5.6754   5.7027   5.7101
     5.7214   5.7260   5.7634   5.7843   6.0186   6.0283   6.0419   6.0584
     6.0644   6.0684   6.0745   6.0790   6.1466   6.1621   6.1670   6.2975

     the Fermi energy is     0.7923 ev

!    total energy              =   -7425.25505082 Ry
     Harris-Foulkes estimate   =   -7425.25505083 Ry
     estimated scf accuracy    <          5.0E-09 Ry

     The total energy is the sum of the following terms:

     one-electron contribution =  -48899.57258688 Ry
     hartree contribution      =   24998.29401725 Ry
     xc contribution           =   -3604.29591144 Ry
     ewald contribution        =   20080.32164515 Ry
     smearing contrib. (-TS)   =      -0.00221491 Ry

     convergence has been achieved in  26 iterations

     Writing output data file 3778969.save

     init_run     :    102.04s CPU    109.80s WALL (       1 calls)
     electrons    :   5867.32s CPU   6250.43s WALL (       1 calls)

     Called by init_run:
     wfcinit      :     74.52s CPU     80.21s WALL (       1 calls)
     potinit      :      6.26s CPU      6.70s WALL (       1 calls)

     Called by electrons:
     c_bands      :   4798.84s CPU   5101.16s WALL (      27 calls)
     sum_band     :    669.89s CPU    732.55s WALL (      27 calls)
     v_of_rho     :     81.09s CPU     91.70s WALL (      27 calls)
     newd         :    329.44s CPU    334.26s WALL (      27 calls)
     mix_rho      :      2.71s CPU      3.12s WALL (      27 calls)
     vdW_energy   :      8.88s CPU      9.58s WALL (      27 calls)
     vdW_ffts     :     35.50s CPU     40.94s WALL (      54 calls)
     vdW_v        :     11.13s CPU     12.00s WALL (      27 calls)

     Called by c_bands:
     init_us_2    :     16.68s CPU     17.11s WALL (     330 calls)
     cegterg      :   4707.03s CPU   5008.25s WALL (     162 calls)

     Called by *egterg:
     h_psi        :   1830.26s CPU   2102.68s WALL (     784 calls)
     s_psi        :    340.61s CPU    342.49s WALL (     784 calls)
     g_psi        :      4.40s CPU      4.37s WALL (     616 calls)
     cdiaghg      :   1360.29s CPU   1364.26s WALL (     772 calls)

     Called by h_psi:
     add_vuspsi   :    342.65s CPU    344.67s WALL (     784 calls)

     General routines
     calbec       :    490.53s CPU    492.39s WALL (     946 calls)
     fft          :     81.44s CPU     91.41s WALL (    1782 calls)
     ffts         :      0.87s CPU      1.15s WALL (      54 calls)
     fftw         :   1188.38s CPU   1465.68s WALL (  438108 calls)
     interpolate  :      2.80s CPU      3.52s WALL (      54 calls)
     davcio       :      0.01s CPU      0.22s WALL (       6 calls)

     Parallel routines
     fft_scatter  :    759.86s CPU    948.97s WALL (  439944 calls)

     PWSCF        :     1h39m CPU        1h46m WALL


   This run was terminated on:   9:19: 4  26Jun2015            

=------------------------------------------------------------------------------=
   JOB DONE.
=------------------------------------------------------------------------------=
