
     Program PWSCF v.5.1.2 starts on 29Aug2015 at 18:47:31 

     This program is part of the open-source Quantum ESPRESSO suite
     for quantum simulation of materials; please cite
         "P. Giannozzi et al., J. Phys.:Condens. Matter 21 395502 (2009);
          URL http://www.quantum-espresso.org", 
     in publications or presentations arising from this work. More details at
     http://www.quantum-espresso.org/quote

     Parallel version (MPI), running on    32 processors
     R & G space division:  proc/nbgrp/npool/nimage =      32
     Reading input from top.O1.Au62.d.2.8.phi.0.psi.90.in
Warning: card &IONS ignored
Warning: card / ignored
Warning: card &CELL ignored
Warning: card / ignored

     Current dimensions of program PWSCF are:
     Max number of different atomic species (ntypx) = 10
     Max number of k-points (npk) =  40000
     Max angular momentum in pseudopotentials (lmaxx) =  3

     IMPORTANT: XC functional enforced from input :
     Exchange-correlation      = VDW-DF ( 1  4  4  0 1 0)
     Any further DFT definition will be discarded
     Please, verify this is what you really want


     Subspace diagonalization in iterative solution of the eigenvalue problem:
     a serial algorithm will be used


     Parallelization info
     --------------------
     sticks:   dense  smooth     PW     G-vecs:    dense   smooth      PW
     Min         578     289     74               118518    41891    5486
     Max         579     290     75               118533    41932    5497
     Sum       18505    9265   2385              3792731  1341081  175711


     Title: 
     top.O1.Au62.d.2.8.phi.0.psi.90                                             


     bravais-lattice index     =            8
     lattice parameter (alat)  =      24.1233  a.u.
     unit-cell volume          =   28076.2361 (a.u.)^3
     number of atoms/cell      =           75
     number of atomic types    =            3
     number of electrons       =       800.00
     number of Kohn-Sham states=          480
     kinetic-energy cutoff     =      50.0000  Ry
     charge density cutoff     =     400.0000  Ry
     convergence threshold     =      1.0E-08
     mixing beta               =       0.7000
     number of iterations used =            8  plain     mixing
     Exchange-correlation      = VDW-DF ( 1  4  4  0 1 0)

     celldm(1)=  24.123277  celldm(2)=   1.000000  celldm(3)=   2.000000
     celldm(4)=   0.000000  celldm(5)=   0.000000  celldm(6)=   0.000000

     crystal axes: (cart. coord. in units of alat)
               a(1) = (   1.000000   0.000000   0.000000 )  
               a(2) = (   0.000000   1.000000   0.000000 )  
               a(3) = (   0.000000   0.000000   2.000000 )  

     reciprocal axes: (cart. coord. in units 2 pi/alat)
               b(1) = (  1.000000  0.000000  0.000000 )  
               b(2) = (  0.000000  1.000000  0.000000 )  
               b(3) = (  0.000000  0.000000  0.500000 )  


     PseudoPot. # 1 for Au read from file:
     /home/scc/andrejb/qe/pseudo/Au.pbe-nd-van.UPF
     MD5 check sum: 458681b50f36d87ef23c61b04bba420a
     Pseudo is Ultrasoft + core correction, Zval = 11.0
     Generated by new atomic code, or converted to UPF format
     Using radial grid of  985 points,  3 beta functions with: 
                l(1) =   1
                l(2) =   2
                l(3) =   2
     Q(r) pseudized with  8 coefficients,  rinner =    1.100   1.100   1.100
                                                       1.100   1.100

     PseudoPot. # 2 for H  read from file:
     /home/scc/andrejb/qe/pseudo/H.pbe-van_ak.UPF
     MD5 check sum: 403db7282739603aa925980fa9b8608d
     Pseudo is Ultrasoft, Zval =  1.0
     Generated by new atomic code, or converted to UPF format
     Using radial grid of  615 points,  1 beta functions with: 
                l(1) =   0
     Q(r) pseudized with  8 coefficients,  rinner =    0.800

     PseudoPot. # 3 for O  read from file:
     /home/scc/andrejb/qe/pseudo/O.pbe-van_ak.UPF
     MD5 check sum: 4b8c549914a63cae506c6ff22b5af4fe
     Pseudo is Ultrasoft, Zval =  6.0
     Generated by new atomic code, or converted to UPF format
     Using radial grid of  737 points,  4 beta functions with: 
                l(1) =   0
                l(2) =   0
                l(3) =   1
                l(4) =   1
     Q(r) pseudized with  8 coefficients,  rinner =    0.800   0.800   0.800


     vdW kernel table read from file vdW_kernel_table
     MD5 check sum: 48e77a2e26edf626eeb0eaa751ad5cac

     atomic species   valence    mass     pseudopotential
        Au            11.00   196.96657     Au( 1.00)
        H              1.00     1.01000     H ( 1.00)
        O              6.00    16.00000     O ( 1.00)

     No symmetry found



   Cartesian axes

     site n.     atom                  positions (alat units)
         1           O   tau(   1) = (   0.4998324   0.3332216   0.7186599  )
         2           H   tau(   2) = (   0.4527548   0.2877277   0.6794884  )
         3           H   tau(   3) = (   0.5454827   0.2853639   0.7566616  )
         4           Au  tau(   4) = (   0.0000000   0.0000000   0.0000000  )
         5           Au  tau(   5) = (   0.3332217   0.0000000   0.0000000  )
         6           Au  tau(   6) = (   0.6664434   0.0000000   0.0000000  )
         7           Au  tau(   7) = (   0.1666109   0.1666109   0.0000000  )
         8           Au  tau(   8) = (   0.4998326   0.1666109   0.0000000  )
         9           Au  tau(   9) = (   0.8330542   0.1666109   0.0000000  )
        10           Au  tau(  10) = (   0.0000000   0.3332217   0.0000000  )
        11           Au  tau(  11) = (   0.3332217   0.3332217   0.0000000  )
        12           Au  tau(  12) = (   0.6664434   0.3332217   0.0000000  )
        13           Au  tau(  13) = (   0.1666109   0.4998326   0.0000000  )
        14           Au  tau(  14) = (   0.4998326   0.4998326   0.0000000  )
        15           Au  tau(  15) = (   0.8330542   0.4998326   0.0000000  )
        16           Au  tau(  16) = (   0.0000000   0.6664434   0.0000000  )
        17           Au  tau(  17) = (   0.3332217   0.6664434   0.0000000  )
        18           Au  tau(  18) = (   0.6664434   0.6664434   0.0000000  )
        19           Au  tau(  19) = (   0.1666109   0.8330542   0.0000000  )
        20           Au  tau(  20) = (   0.4998326   0.8330542   0.0000000  )
        21           Au  tau(  21) = (   0.8330542   0.8330542   0.0000000  )
        22           Au  tau(  22) = (   0.1666109   0.0000000   0.1666109  )
        23           Au  tau(  23) = (   0.4998326   0.0000000   0.1666109  )
        24           Au  tau(  24) = (   0.8330542   0.0000000   0.1666109  )
        25           Au  tau(  25) = (   0.0000000   0.1666109   0.1666109  )
        26           Au  tau(  26) = (   0.3332217   0.1666109   0.1666109  )
        27           Au  tau(  27) = (   0.6664434   0.1666109   0.1666109  )
        28           Au  tau(  28) = (   0.1666109   0.3332217   0.1666109  )
        29           Au  tau(  29) = (   0.4998326   0.3332217   0.1666109  )
        30           Au  tau(  30) = (   0.8330542   0.3332217   0.1666109  )
        31           Au  tau(  31) = (   0.0000000   0.4998326   0.1666109  )
        32           Au  tau(  32) = (   0.3332217   0.4998326   0.1666109  )
        33           Au  tau(  33) = (   0.6664434   0.4998326   0.1666109  )
        34           Au  tau(  34) = (   0.1666109   0.6664434   0.1666109  )
        35           Au  tau(  35) = (   0.4998326   0.6664434   0.1666109  )
        36           Au  tau(  36) = (   0.8330542   0.6664434   0.1666109  )
        37           Au  tau(  37) = (   0.0000000   0.8330542   0.1666109  )
        38           Au  tau(  38) = (   0.3332217   0.8330542   0.1666109  )
        39           Au  tau(  39) = (   0.6664434   0.8330542   0.1666109  )
        40           Au  tau(  40) = (  -0.0000182  -0.0000182   0.3335478  )
        41           Au  tau(  41) = (   0.3332215  -0.0000181   0.3335473  )
        42           Au  tau(  42) = (   0.6664447  -0.0000183   0.3335481  )
        43           Au  tau(  43) = (  -0.0000181   0.3332215   0.3335473  )
        44           Au  tau(  44) = (   0.3332215   0.3332215   0.3335468  )
        45           Au  tau(  45) = (   0.6664445   0.3332215   0.3335477  )
        46           Au  tau(  46) = (  -0.0000183   0.6664447   0.3335481  )
        47           Au  tau(  47) = (   0.3332215   0.6664445   0.3335477  )
        48           Au  tau(  48) = (   0.6664446   0.6664446   0.3335486  )
        49           Au  tau(  49) = (   0.1666097   0.1666097   0.3335483  )
        50           Au  tau(  50) = (   0.4998320   0.1666098   0.3335477  )
        51           Au  tau(  51) = (   0.8330732   0.1666096   0.3335480  )
        52           Au  tau(  52) = (   0.1666098   0.4998320   0.3335477  )
        53           Au  tau(  53) = (   0.4998322   0.4998322   0.3335470  )
        54           Au  tau(  54) = (   0.8330731   0.4998322   0.3335474  )
        55           Au  tau(  55) = (   0.1666096   0.8330732   0.3335480  )
        56           Au  tau(  56) = (   0.4998322   0.8330731   0.3335474  )
        57           Au  tau(  57) = (   0.8330731   0.8330731   0.3335478  )
        58           Au  tau(  58) = (   0.1666104  -0.0000111   0.4993095  )
        59           Au  tau(  59) = (   0.4998323  -0.0000112   0.4993099  )
        60           Au  tau(  60) = (   0.8330660  -0.0000111   0.4993009  )
        61           Au  tau(  61) = (  -0.0000111   0.1666104   0.4993095  )
        62           Au  tau(  62) = (   0.3332213   0.1666106   0.4993185  )
        63           Au  tau(  63) = (   0.6664437   0.1666106   0.4993187  )
        64           Au  tau(  64) = (   0.1666106   0.3332213   0.4993185  )
        65           Au  tau(  65) = (   0.4998324   0.3332216   0.4993185  )
        66           Au  tau(  66) = (   0.8330658   0.3332215   0.4993102  )
        67           Au  tau(  67) = (  -0.0000112   0.4998323   0.4993099  )
        68           Au  tau(  68) = (   0.3332216   0.4998324   0.4993185  )
        69           Au  tau(  69) = (   0.6664437   0.4998325   0.4993187  )
        70           Au  tau(  70) = (   0.1666106   0.6664437   0.4993187  )
        71           Au  tau(  71) = (   0.4998325   0.6664437   0.4993187  )
        72           Au  tau(  72) = (   0.8330658   0.6664438   0.4993102  )
        73           Au  tau(  73) = (  -0.0000111   0.8330660   0.4993009  )
        74           Au  tau(  74) = (   0.3332215   0.8330658   0.4993102  )
        75           Au  tau(  75) = (   0.6664438   0.8330658   0.4993102  )

     number of k points=     6  Marzari-Vanderbilt smearing, width (Ry)=  0.0200
                       cart. coord. in units 2pi/alat
        k(    1) = (   0.2500000   0.2500000   0.0833333), wk =   0.3333333
        k(    2) = (   0.2500000   0.2500000  -0.2500000), wk =   0.3333333
        k(    3) = (  -0.2500000  -0.2500000   0.0833333), wk =   0.3333333
        k(    4) = (  -0.2500000   0.2500000  -0.0833333), wk =   0.3333333
        k(    5) = (   0.2500000  -0.2500000  -0.0833333), wk =   0.3333333
        k(    6) = (  -0.2500000   0.2500000   0.2500000), wk =   0.3333333

     Dense  grid:  3792731 G-vectors     FFT dimensions: ( 160, 160, 320)

     Smooth grid:  1341081 G-vectors     FFT dimensions: ( 120, 120, 225)

     Largest allocated arrays     est. size (Mb)     dimensions
        Kohn-Sham Wavefunctions        38.58 Mb     (    5267,  480)
        NL pseudopotentials            76.03 Mb     (    5267,  946)
        Each V/rho on FFT grid          3.91 Mb     (  256000)
        Each G-vector array             0.90 Mb     (  118520)
        G-vector shells                 0.08 Mb     (   10286)
     Largest temporary arrays     est. size (Mb)     dimensions
        Auxiliary wavefunctions       154.31 Mb     (    5267, 1920)
        Each subspace H/S matrix       56.25 Mb     (    1920, 1920)
        Each <psi_i|beta_j> matrix      6.93 Mb     (     946,  480)
        Arrays for rho mixing          31.25 Mb     (  256000,    8)

     Initial potential from superposition of free atoms
     Check: negative starting charge=   -1.945146

     starting charge  799.16392, renormalised to  800.00000

     negative rho (up, down):  1.947E+00 0.000E+00


     ************************************************************************
     *
     * You are using vdW-DF for exchange-correlation in this calculation.
     * Please cite the following three references that made this development
     * possible:
     *
     *   M. Dion, H. Rydberg, E. Schroder, D. C. Langreth, and
     *   B. I. Lundqvist, Phys. Rev. Lett. 92, 246401 (2004).
     *
     *   T. Thonhauser, V. R. Cooper, S. Li, A. Puzder, P. Hyldgaard, and
     *   D. C. Langreth, Phys. Rev. B 76, 125112 (2007).
     *
     *   G. Roman-Perez and J. M. Soler, Phys. Rev. Lett. 103, 096102 (2009).
     *
     *
     * If you are using vdW-DF2, please also cite:
     *
     *   K. Lee, E. D. Murray, L. Kong, B. I. Lundqvist, and
     *   D. C. Langreth, Phys. Rev. B 82, 081101(R) (2010).
     *
     *
     * If you are calculating the stress with vdW-DF, please also cite:
     *
     *   R. Sabatini, E. Kucukbenli, B. Kolb, T. Thonhauser, and
     *   S. de Gironcoli, J. Phys.: Condens. Matter 24, 424209 (2012).
     *
     ************************************************************************

     Carrying out vdW-DF run using the following parameters:

     Nqs =      20    Nr_points =    1024   r_max =   100.000
     q_mesh =
               0.00001000     0.04494208     0.09755937     0.15916263
               0.23128650     0.31572767     0.41458969     0.53033537
               0.66584808     0.82450364     1.01025438     1.22772762
               1.48234092     1.78043706     2.12944203     2.53805004
               3.01644009     3.57652955     4.23227104     5.00000000

     Gradients computed in reciprocal space

     ************************************************************************


     Starting wfc are  654 randomized atomic wfcs

     total cpu time spent up to now is      139.2 secs

     Self-consistent Calculation

     iteration #  1     ecut=    50.00 Ry     beta=0.70
     Davidson diagonalization with overlap
     ethr =  1.00E-02,  avg # of iterations =  3.0

     Threshold (ethr) on eigenvalues was too large:
     Diagonalizing with lowered threshold

     Davidson diagonalization with overlap
     ethr =  4.21E-04,  avg # of iterations =  2.0

     negative rho (up, down):  1.947E+00 0.000E+00

     total cpu time spent up to now is      569.5 secs

     total energy              =   -7423.03036091 Ry
     Harris-Foulkes estimate   =   -7426.06562915 Ry
     estimated scf accuracy    <       3.75021238 Ry

     iteration #  2     ecut=    50.00 Ry     beta=0.70
     Davidson diagonalization with overlap
     ethr =  4.69E-04,  avg # of iterations = 11.3

     negative rho (up, down):  1.942E+00 0.000E+00

     total cpu time spent up to now is     1344.7 secs

     total energy              =   -7415.05563641 Ry
     Harris-Foulkes estimate   =   -7432.66013121 Ry
     estimated scf accuracy    <      92.09712564 Ry

     iteration #  3     ecut=    50.00 Ry     beta=0.70
     Davidson diagonalization with overlap
     ethr =  4.69E-04,  avg # of iterations =  6.0

     negative rho (up, down):  1.953E+00 0.000E+00

     total cpu time spent up to now is     1830.4 secs

     total energy              =   -7424.41832951 Ry
     Harris-Foulkes estimate   =   -7425.85589769 Ry
     estimated scf accuracy    <       5.49942046 Ry

     iteration #  4     ecut=    50.00 Ry     beta=0.70
     Davidson diagonalization with overlap
     ethr =  4.69E-04,  avg # of iterations =  6.3

     negative rho (up, down):  1.956E+00 0.000E+00

     total cpu time spent up to now is     2104.0 secs

     total energy              =   -7424.76436365 Ry
     Harris-Foulkes estimate   =   -7425.73178476 Ry
     estimated scf accuracy    <       7.06244871 Ry

     iteration #  5     ecut=    50.00 Ry     beta=0.70
     Davidson diagonalization with overlap
     ethr =  4.69E-04,  avg # of iterations =  5.5

     negative rho (up, down):  1.964E+00 0.000E+00

     total cpu time spent up to now is     2436.6 secs

     total energy              =   -7425.21233770 Ry
     Harris-Foulkes estimate   =   -7425.41821785 Ry
     estimated scf accuracy    <       1.21097817 Ry

     iteration #  6     ecut=    50.00 Ry     beta=0.70
     Davidson diagonalization with overlap
     ethr =  1.51E-04,  avg # of iterations =  5.3

     negative rho (up, down):  1.967E+00 0.000E+00

     total cpu time spent up to now is     2702.2 secs

     total energy              =   -7425.26887293 Ry
     Harris-Foulkes estimate   =   -7425.31638900 Ry
     estimated scf accuracy    <       0.16274593 Ry

     iteration #  7     ecut=    50.00 Ry     beta=0.70
     Davidson diagonalization with overlap
     ethr =  2.03E-05,  avg # of iterations =  7.5

     negative rho (up, down):  1.970E+00 0.000E+00

     total cpu time spent up to now is     3017.1 secs

     total energy              =   -7425.27522681 Ry
     Harris-Foulkes estimate   =   -7425.31009644 Ry
     estimated scf accuracy    <       0.16926673 Ry

     iteration #  8     ecut=    50.00 Ry     beta=0.70
     Davidson diagonalization with overlap
     ethr =  2.03E-05,  avg # of iterations =  4.5

     negative rho (up, down):  1.971E+00 0.000E+00

     total cpu time spent up to now is     3275.7 secs

     total energy              =   -7425.28212000 Ry
     Harris-Foulkes estimate   =   -7425.29831355 Ry
     estimated scf accuracy    <       0.05901702 Ry

     iteration #  9     ecut=    50.00 Ry     beta=0.70
     Davidson diagonalization with overlap
     ethr =  7.38E-06,  avg # of iterations =  6.7

     negative rho (up, down):  1.972E+00 0.000E+00

     total cpu time spent up to now is     3560.3 secs

     total energy              =   -7425.28655025 Ry
     Harris-Foulkes estimate   =   -7425.29242858 Ry
     estimated scf accuracy    <       0.01766421 Ry

     iteration # 10     ecut=    50.00 Ry     beta=0.70
     Davidson diagonalization with overlap
     ethr =  2.21E-06,  avg # of iterations =  7.5

     negative rho (up, down):  1.973E+00 0.000E+00

     total cpu time spent up to now is     3878.6 secs

     total energy              =   -7425.28875981 Ry
     Harris-Foulkes estimate   =   -7425.29037617 Ry
     estimated scf accuracy    <       0.00440517 Ry

     iteration # 11     ecut=    50.00 Ry     beta=0.70
     Davidson diagonalization with overlap
     ethr =  5.51E-07,  avg # of iterations =  4.8

     negative rho (up, down):  1.973E+00 0.000E+00

     total cpu time spent up to now is     4162.9 secs

     total energy              =   -7425.28922526 Ry
     Harris-Foulkes estimate   =   -7425.29005297 Ry
     estimated scf accuracy    <       0.00264320 Ry

     iteration # 12     ecut=    50.00 Ry     beta=0.70
     Davidson diagonalization with overlap
     ethr =  3.30E-07,  avg # of iterations =  2.0

     negative rho (up, down):  1.973E+00 0.000E+00

     total cpu time spent up to now is     4396.5 secs

     total energy              =   -7425.28937901 Ry
     Harris-Foulkes estimate   =   -7425.28995795 Ry
     estimated scf accuracy    <       0.00271584 Ry

     iteration # 13     ecut=    50.00 Ry     beta=0.70
     Davidson diagonalization with overlap
     ethr =  3.30E-07,  avg # of iterations =  2.2

     negative rho (up, down):  1.974E+00 0.000E+00

     total cpu time spent up to now is     4614.4 secs

     total energy              =   -7425.28947271 Ry
     Harris-Foulkes estimate   =   -7425.28994550 Ry
     estimated scf accuracy    <       0.00224131 Ry

     iteration # 14     ecut=    50.00 Ry     beta=0.70
     Davidson diagonalization with overlap
     ethr =  2.80E-07,  avg # of iterations =  2.0

     negative rho (up, down):  1.974E+00 0.000E+00

     total cpu time spent up to now is     4821.6 secs

     total energy              =   -7425.28969071 Ry
     Harris-Foulkes estimate   =   -7425.28971480 Ry
     estimated scf accuracy    <       0.00008671 Ry

     iteration # 15     ecut=    50.00 Ry     beta=0.70
     Davidson diagonalization with overlap
     ethr =  1.08E-08,  avg # of iterations =  2.7

     negative rho (up, down):  1.974E+00 0.000E+00

     total cpu time spent up to now is     5078.7 secs

     total energy              =   -7425.28970445 Ry
     Harris-Foulkes estimate   =   -7425.28971450 Ry
     estimated scf accuracy    <       0.00005030 Ry

     iteration # 16     ecut=    50.00 Ry     beta=0.70
     Davidson diagonalization with overlap
     ethr =  6.29E-09,  avg # of iterations =  2.0

     negative rho (up, down):  1.974E+00 0.000E+00

     total cpu time spent up to now is     5277.8 secs

     total energy              =   -7425.28970766 Ry
     Harris-Foulkes estimate   =   -7425.28971444 Ry
     estimated scf accuracy    <       0.00004124 Ry

     iteration # 17     ecut=    50.00 Ry     beta=0.70
     Davidson diagonalization with overlap
     ethr =  5.16E-09,  avg # of iterations =  1.0

     negative rho (up, down):  1.974E+00 0.000E+00

     total cpu time spent up to now is     5464.6 secs

     total energy              =   -7425.28971051 Ry
     Harris-Foulkes estimate   =   -7425.28971133 Ry
     estimated scf accuracy    <       0.00000262 Ry

     iteration # 18     ecut=    50.00 Ry     beta=0.70
     Davidson diagonalization with overlap
     ethr =  3.27E-10,  avg # of iterations =  2.0

     negative rho (up, down):  1.974E+00 0.000E+00

     total cpu time spent up to now is     5685.8 secs

     total energy              =   -7425.28971071 Ry
     Harris-Foulkes estimate   =   -7425.28971108 Ry
     estimated scf accuracy    <       0.00000115 Ry

     iteration # 19     ecut=    50.00 Ry     beta=0.70
     Davidson diagonalization with overlap
     ethr =  1.44E-10,  avg # of iterations =  3.0

     negative rho (up, down):  1.974E+00 0.000E+00

     total cpu time spent up to now is     5915.1 secs

     total energy              =   -7425.28971070 Ry
     Harris-Foulkes estimate   =   -7425.28971103 Ry
     estimated scf accuracy    <       0.00000109 Ry

     iteration # 20     ecut=    50.00 Ry     beta=0.70
     Davidson diagonalization with overlap
     ethr =  1.36E-10,  avg # of iterations =  2.0

     negative rho (up, down):  1.974E+00 0.000E+00

     total cpu time spent up to now is     6117.9 secs

     total energy              =   -7425.28971074 Ry
     Harris-Foulkes estimate   =   -7425.28971091 Ry
     estimated scf accuracy    <       0.00000047 Ry

     iteration # 21     ecut=    50.00 Ry     beta=0.70
     Davidson diagonalization with overlap
     ethr =  5.85E-11,  avg # of iterations =  2.0

     negative rho (up, down):  1.974E+00 0.000E+00

     total cpu time spent up to now is     6344.9 secs

     total energy              =   -7425.28971077 Ry
     Harris-Foulkes estimate   =   -7425.28971082 Ry
     estimated scf accuracy    <       0.00000009 Ry

     iteration # 22     ecut=    50.00 Ry     beta=0.70
     Davidson diagonalization with overlap
     ethr =  1.07E-11,  avg # of iterations =  2.0

     negative rho (up, down):  1.974E+00 0.000E+00

     total cpu time spent up to now is     6576.8 secs

     total energy              =   -7425.28971075 Ry
     Harris-Foulkes estimate   =   -7425.28971080 Ry
     estimated scf accuracy    <       0.00000007 Ry

     iteration # 23     ecut=    50.00 Ry     beta=0.70
     Davidson diagonalization with overlap
     ethr =  8.83E-12,  avg # of iterations =  2.0

     negative rho (up, down):  1.974E+00 0.000E+00

     total cpu time spent up to now is     6779.3 secs

     total energy              =   -7425.28971076 Ry
     Harris-Foulkes estimate   =   -7425.28971076 Ry
     estimated scf accuracy    <       0.00000001 Ry

     iteration # 24     ecut=    50.00 Ry     beta=0.70
     Davidson diagonalization with overlap
     ethr =  1.53E-12,  avg # of iterations =  3.0

     negative rho (up, down):  1.974E+00 0.000E+00

     total cpu time spent up to now is     7083.9 secs

     total energy              =   -7425.28971075 Ry
     Harris-Foulkes estimate   =   -7425.28971077 Ry
     estimated scf accuracy    <       0.00000006 Ry

     iteration # 25     ecut=    50.00 Ry     beta=0.70
     Davidson diagonalization with overlap
     ethr =  1.53E-12,  avg # of iterations =  3.0

     negative rho (up, down):  1.974E+00 0.000E+00

     total cpu time spent up to now is     7325.3 secs

     End of self-consistent calculation

          k = 0.2500 0.2500 0.0833 (167653 PWs)   bands (ev):

   -19.8734  -7.7410  -6.8045  -6.2768  -6.2755  -5.8467  -5.4388  -5.3449
    -5.3442  -5.1487  -5.1481  -5.0325  -5.0308  -4.9522  -4.9297  -4.8563
    -4.7715  -4.7675  -4.7292  -4.7283  -4.5687  -4.5512  -4.5501  -4.5497
    -4.5425  -4.4872  -4.4870  -4.4754  -4.4749  -4.4380  -4.4267  -4.4255
    -4.3835  -4.3831  -4.3505  -4.3487  -4.2988  -4.2967  -4.2876  -4.2849
    -4.2790  -4.2663  -4.2659  -4.2266  -4.2072  -4.2067  -4.1998  -4.1995
    -4.1687  -4.1194  -4.1033  -4.1025  -4.1020  -4.0988  -4.0909  -4.0857
    -4.0853  -4.0840  -4.0250  -4.0202  -3.9768  -3.9700  -3.9635  -3.9422
    -3.9323  -3.9239  -3.9128  -3.9083  -3.9077  -3.9017  -3.8980  -3.8519
    -3.8509  -3.8389  -3.8384  -3.7342  -3.7330  -3.7273  -3.7234  -3.6897
    -3.6852  -3.6659  -3.6373  -3.6365  -3.6078  -3.6072  -3.5871  -3.5861
    -3.5736  -3.5723  -3.5173  -3.5169  -3.5007  -3.4829  -3.4734  -3.4708
    -3.4700  -3.4686  -3.4426  -3.4422  -3.4064  -3.4053  -3.3861  -3.3823
    -3.3522  -3.3488  -3.3332  -3.3052  -3.3038  -3.2675  -3.2664  -3.2312
    -3.2230  -3.2224  -3.2091  -3.2081  -3.2041  -3.2031  -3.1679  -3.1544
    -3.1159  -3.1147  -3.1059  -3.0986  -3.0966  -3.0949  -3.0711  -3.0705
    -3.0507  -3.0496  -3.0485  -3.0223  -3.0216  -3.0140  -3.0122  -3.0108
    -2.9747  -2.9727  -2.9372  -2.9355  -2.9348  -2.9324  -2.9310  -2.8514
    -2.8424  -2.8399  -2.8378  -2.8373  -2.8366  -2.8351  -2.8311  -2.8301
    -2.8297  -2.8204  -2.8126  -2.8009  -2.7964  -2.7933  -2.7920  -2.7785
    -2.7744  -2.7386  -2.7357  -2.7343  -2.7314  -2.7298  -2.7116  -2.7113
    -2.7037  -2.7031  -2.6998  -2.6438  -2.6416  -2.6388  -2.6354  -2.6345
    -2.6308  -2.6052  -2.5538  -2.5433  -2.5423  -2.5389  -2.5300  -2.5277
    -2.5259  -2.5126  -2.5103  -2.4841  -2.4739  -2.4700  -2.4666  -2.4641
    -2.4636  -2.4291  -2.4251  -2.4164  -2.4139  -2.4130  -2.4122  -2.3859
    -2.3659  -2.3504  -2.2973  -2.2949  -2.2885  -2.2789  -2.2744  -2.2703
    -2.2282  -2.2209  -2.2169  -2.1975  -2.1831  -2.1685  -2.1657  -2.1630
    -2.1448  -2.1425  -2.1345  -2.1037  -2.0808  -2.0758  -2.0653  -2.0617
    -2.0605  -2.0524  -2.0504  -2.0390  -2.0351  -2.0312  -2.0299  -2.0258
    -2.0242  -2.0201  -2.0146  -2.0117  -1.9961  -1.9944  -1.9917  -1.9868
    -1.9842  -1.9818  -1.9616  -1.9588  -1.9479  -1.9474  -1.9411  -1.9250
    -1.8964  -1.8700  -1.8629  -1.8340  -1.8177  -1.8168  -1.8070  -1.8035
    -1.7827  -1.7809  -1.7694  -1.7673  -1.7658  -1.7647  -1.7627  -1.7554
    -1.7295  -1.7286  -1.7213  -1.6839  -1.6783  -1.6458  -1.6403  -1.5966
    -1.5944  -1.5811  -1.5611  -1.5534  -1.5528  -1.5373  -1.5343  -1.5205
    -1.5171  -1.5139  -1.5128  -1.5114  -1.5111  -1.5086  -1.5023  -1.4886
    -1.4855  -1.4665  -1.4605  -1.4428  -1.4413  -1.4175  -1.4140  -1.4120
    -1.4107  -1.4065  -1.3991  -1.3845  -1.3790  -1.3683  -1.3589  -1.3477
    -1.3461  -1.3306  -1.3204  -1.3019  -1.3002  -1.2938  -1.2864  -1.2571
    -1.2551  -1.2472  -1.2449  -1.2401  -1.2313  -1.2186  -1.2165  -1.2066
    -1.1981  -1.1960  -1.1875  -1.1851  -1.1845  -1.1742  -1.1709  -1.1598
    -1.1586  -1.1509  -1.1509  -1.1397  -1.1348  -1.1290  -1.1215  -1.0886
    -1.0857  -1.0822  -1.0786  -1.0780  -1.0681  -1.0405  -1.0233  -1.0220
    -1.0213  -1.0189  -1.0180  -1.0119  -1.0087  -0.9963  -0.9852  -0.9608
    -0.9532  -0.9528  -0.9463  -0.9302  -0.9294  -0.9201  -0.8913  -0.8829
    -0.8558  -0.8545  -0.8281  -0.8275  -0.8236  -0.8234  -0.8212  -0.8167
    -0.8130  -0.8107  -0.8076  -0.8064  -0.7765  -0.7763  -0.7592  -0.7549
    -0.7528  -0.7518  -0.7505  -0.7323  -0.7236  -0.4592  -0.4447  -0.3910
    -0.3699  -0.3489  -0.1912  -0.1256  -0.1244  -0.0828   0.1936   0.2002
     0.5229   0.5363   0.6223   0.6235   0.6640   0.6654   0.8066   0.8196
     0.9319   0.9350   1.0264   1.6190   1.6370   1.6387   1.6744   1.6832
     1.7216   1.7372   1.8067   1.8163   2.0142   2.0160   2.2513   2.3279
     2.3364   2.3471   2.7222   2.7358   2.7995   2.8005   2.8083   2.8092
     2.9568   2.9602   2.9977   3.1008   3.1073   3.3339   3.3366   3.4685
     3.4960   3.5016   3.7658   3.7715   3.8820   3.8992   3.9008   3.9384
     3.9758   4.0848   4.0872   4.3209   4.3251   4.4105   4.4134   4.5347
     4.5355   4.5568   4.5772   4.6829   5.0246   5.3485   5.3661   5.4579
     5.4633   5.5274   5.6430   5.6467   5.6566   5.7066   5.7334   5.7630
     5.7657   5.8088   5.8164   5.8569   6.0193   6.0813   6.1129   6.1237
     6.1334   6.1435   6.1556   6.1570   6.1677   6.1703   6.1842   6.2243

          k = 0.2500 0.2500-0.2500 (167588 PWs)   bands (ev):

   -19.8734  -7.7410  -6.8045  -6.2768  -6.2755  -5.8467  -5.4388  -5.3449
    -5.3442  -5.1487  -5.1481  -5.0325  -5.0308  -4.9522  -4.9297  -4.8563
    -4.7715  -4.7675  -4.7292  -4.7283  -4.5687  -4.5512  -4.5501  -4.5497
    -4.5425  -4.4872  -4.4870  -4.4754  -4.4749  -4.4380  -4.4267  -4.4255
    -4.3835  -4.3831  -4.3505  -4.3487  -4.2988  -4.2967  -4.2876  -4.2849
    -4.2790  -4.2663  -4.2659  -4.2266  -4.2072  -4.2067  -4.1998  -4.1995
    -4.1687  -4.1194  -4.1033  -4.1025  -4.1019  -4.0988  -4.0909  -4.0857
    -4.0853  -4.0840  -4.0250  -4.0202  -3.9768  -3.9700  -3.9635  -3.9422
    -3.9323  -3.9239  -3.9128  -3.9083  -3.9076  -3.9017  -3.8980  -3.8519
    -3.8509  -3.8389  -3.8384  -3.7342  -3.7330  -3.7273  -3.7234  -3.6897
    -3.6852  -3.6659  -3.6373  -3.6365  -3.6078  -3.6072  -3.5871  -3.5861
    -3.5736  -3.5723  -3.5173  -3.5169  -3.5007  -3.4829  -3.4734  -3.4708
    -3.4700  -3.4686  -3.4426  -3.4422  -3.4064  -3.4053  -3.3861  -3.3823
    -3.3522  -3.3488  -3.3332  -3.3052  -3.3038  -3.2675  -3.2664  -3.2312
    -3.2230  -3.2224  -3.2091  -3.2081  -3.2041  -3.2031  -3.1679  -3.1544
    -3.1159  -3.1147  -3.1059  -3.0986  -3.0966  -3.0949  -3.0711  -3.0705
    -3.0507  -3.0496  -3.0485  -3.0223  -3.0216  -3.0140  -3.0122  -3.0108
    -2.9747  -2.9727  -2.9372  -2.9355  -2.9348  -2.9324  -2.9309  -2.8514
    -2.8424  -2.8399  -2.8378  -2.8373  -2.8366  -2.8351  -2.8311  -2.8301
    -2.8297  -2.8204  -2.8126  -2.8009  -2.7964  -2.7933  -2.7920  -2.7784
    -2.7744  -2.7386  -2.7357  -2.7343  -2.7314  -2.7298  -2.7116  -2.7113
    -2.7037  -2.7031  -2.6998  -2.6438  -2.6416  -2.6388  -2.6354  -2.6345
    -2.6308  -2.6052  -2.5538  -2.5433  -2.5423  -2.5389  -2.5300  -2.5277
    -2.5259  -2.5126  -2.5103  -2.4841  -2.4739  -2.4700  -2.4666  -2.4641
    -2.4636  -2.4291  -2.4251  -2.4164  -2.4139  -2.4130  -2.4122  -2.3859
    -2.3659  -2.3504  -2.2973  -2.2949  -2.2885  -2.2789  -2.2744  -2.2703
    -2.2282  -2.2209  -2.2169  -2.1975  -2.1831  -2.1685  -2.1657  -2.1630
    -2.1448  -2.1425  -2.1345  -2.1037  -2.0808  -2.0758  -2.0653  -2.0617
    -2.0605  -2.0524  -2.0504  -2.0390  -2.0351  -2.0312  -2.0299  -2.0258
    -2.0242  -2.0201  -2.0146  -2.0117  -1.9961  -1.9944  -1.9918  -1.9868
    -1.9842  -1.9818  -1.9616  -1.9588  -1.9479  -1.9474  -1.9411  -1.9250
    -1.8964  -1.8700  -1.8629  -1.8340  -1.8177  -1.8168  -1.8070  -1.8035
    -1.7827  -1.7808  -1.7694  -1.7673  -1.7658  -1.7647  -1.7627  -1.7554
    -1.7295  -1.7286  -1.7213  -1.6839  -1.6783  -1.6458  -1.6403  -1.5966
    -1.5944  -1.5811  -1.5611  -1.5535  -1.5528  -1.5373  -1.5343  -1.5205
    -1.5171  -1.5139  -1.5128  -1.5114  -1.5111  -1.5086  -1.5023  -1.4886
    -1.4855  -1.4665  -1.4605  -1.4428  -1.4413  -1.4175  -1.4140  -1.4120
    -1.4107  -1.4064  -1.3991  -1.3845  -1.3790  -1.3683  -1.3589  -1.3477
    -1.3461  -1.3306  -1.3204  -1.3019  -1.3002  -1.2938  -1.2864  -1.2571
    -1.2551  -1.2472  -1.2449  -1.2401  -1.2313  -1.2186  -1.2165  -1.2066
    -1.1981  -1.1960  -1.1875  -1.1851  -1.1844  -1.1742  -1.1709  -1.1598
    -1.1586  -1.1509  -1.1509  -1.1397  -1.1348  -1.1290  -1.1215  -1.0886
    -1.0857  -1.0822  -1.0786  -1.0780  -1.0681  -1.0405  -1.0233  -1.0220
    -1.0213  -1.0189  -1.0180  -1.0119  -1.0087  -0.9963  -0.9852  -0.9608
    -0.9532  -0.9528  -0.9463  -0.9302  -0.9294  -0.9201  -0.8913  -0.8829
    -0.8558  -0.8545  -0.8281  -0.8275  -0.8236  -0.8234  -0.8212  -0.8167
    -0.8130  -0.8107  -0.8076  -0.8064  -0.7765  -0.7763  -0.7592  -0.7549
    -0.7528  -0.7518  -0.7505  -0.7323  -0.7236  -0.4592  -0.4447  -0.3910
    -0.3699  -0.3489  -0.1912  -0.1256  -0.1244  -0.0828   0.1936   0.2002
     0.5229   0.5363   0.6224   0.6235   0.6640   0.6654   0.8066   0.8196
     0.9320   0.9350   1.0264   1.6190   1.6370   1.6387   1.6744   1.6832
     1.7216   1.7372   1.8067   1.8163   2.0143   2.0160   2.2513   2.3279
     2.3364   2.3471   2.7222   2.7358   2.7995   2.8005   2.8083   2.8092
     2.9568   2.9602   2.9978   3.1008   3.1073   3.3339   3.3366   3.4685
     3.4960   3.5016   3.7658   3.7715   3.8820   3.8992   3.9008   3.9385
     3.9758   4.0848   4.0872   4.3209   4.3251   4.4105   4.4134   4.5347
     4.5355   4.5568   4.5772   4.6830   5.0195   5.3461   5.3617   5.4550
     5.4628   5.5178   5.6460   5.6480   5.6862   5.7139   5.7500   5.7628
     5.7660   5.8092   5.8164   5.8567   6.0300   6.0822   6.0986   6.1252
     6.1413   6.1529   6.1574   6.1595   6.1676   6.1704   6.2093   6.2260

          k =-0.2500-0.2500 0.0833 (167653 PWs)   bands (ev):

   -19.8734  -7.7410  -6.8045  -6.2768  -6.2755  -5.8467  -5.4388  -5.3449
    -5.3442  -5.1487  -5.1481  -5.0325  -5.0308  -4.9522  -4.9297  -4.8563
    -4.7715  -4.7675  -4.7292  -4.7283  -4.5687  -4.5512  -4.5501  -4.5497
    -4.5425  -4.4872  -4.4870  -4.4754  -4.4749  -4.4380  -4.4267  -4.4255
    -4.3835  -4.3831  -4.3505  -4.3487  -4.2988  -4.2967  -4.2876  -4.2849
    -4.2790  -4.2663  -4.2659  -4.2266  -4.2072  -4.2067  -4.1998  -4.1995
    -4.1687  -4.1194  -4.1033  -4.1025  -4.1020  -4.0988  -4.0909  -4.0857
    -4.0853  -4.0840  -4.0250  -4.0202  -3.9768  -3.9700  -3.9635  -3.9422
    -3.9323  -3.9239  -3.9128  -3.9083  -3.9077  -3.9017  -3.8980  -3.8519
    -3.8509  -3.8389  -3.8384  -3.7342  -3.7330  -3.7273  -3.7234  -3.6897
    -3.6852  -3.6659  -3.6373  -3.6365  -3.6078  -3.6072  -3.5871  -3.5861
    -3.5736  -3.5723  -3.5173  -3.5169  -3.5007  -3.4829  -3.4734  -3.4708
    -3.4700  -3.4686  -3.4426  -3.4422  -3.4064  -3.4053  -3.3861  -3.3823
    -3.3522  -3.3488  -3.3332  -3.3052  -3.3038  -3.2675  -3.2664  -3.2312
    -3.2230  -3.2224  -3.2091  -3.2081  -3.2041  -3.2031  -3.1679  -3.1544
    -3.1159  -3.1147  -3.1059  -3.0986  -3.0966  -3.0949  -3.0711  -3.0705
    -3.0507  -3.0496  -3.0485  -3.0223  -3.0216  -3.0140  -3.0122  -3.0108
    -2.9747  -2.9727  -2.9372  -2.9355  -2.9348  -2.9324  -2.9310  -2.8514
    -2.8424  -2.8399  -2.8378  -2.8373  -2.8366  -2.8351  -2.8311  -2.8301
    -2.8297  -2.8204  -2.8126  -2.8009  -2.7964  -2.7933  -2.7920  -2.7785
    -2.7744  -2.7386  -2.7357  -2.7343  -2.7314  -2.7298  -2.7116  -2.7113
    -2.7037  -2.7031  -2.6998  -2.6438  -2.6416  -2.6388  -2.6354  -2.6345
    -2.6308  -2.6052  -2.5538  -2.5433  -2.5423  -2.5389  -2.5300  -2.5277
    -2.5259  -2.5126  -2.5103  -2.4841  -2.4739  -2.4700  -2.4666  -2.4641
    -2.4636  -2.4291  -2.4251  -2.4164  -2.4139  -2.4130  -2.4122  -2.3859
    -2.3659  -2.3504  -2.2973  -2.2949  -2.2885  -2.2789  -2.2744  -2.2703
    -2.2282  -2.2209  -2.2169  -2.1975  -2.1831  -2.1685  -2.1657  -2.1630
    -2.1448  -2.1425  -2.1345  -2.1037  -2.0808  -2.0758  -2.0653  -2.0617
    -2.0605  -2.0524  -2.0504  -2.0390  -2.0351  -2.0312  -2.0299  -2.0258
    -2.0242  -2.0201  -2.0146  -2.0117  -1.9961  -1.9944  -1.9917  -1.9868
    -1.9842  -1.9818  -1.9616  -1.9588  -1.9479  -1.9474  -1.9411  -1.9250
    -1.8964  -1.8700  -1.8629  -1.8340  -1.8177  -1.8168  -1.8070  -1.8035
    -1.7827  -1.7809  -1.7694  -1.7673  -1.7658  -1.7647  -1.7627  -1.7554
    -1.7295  -1.7286  -1.7213  -1.6839  -1.6783  -1.6458  -1.6403  -1.5966
    -1.5944  -1.5811  -1.5611  -1.5534  -1.5528  -1.5373  -1.5343  -1.5205
    -1.5171  -1.5139  -1.5128  -1.5114  -1.5111  -1.5086  -1.5023  -1.4886
    -1.4855  -1.4665  -1.4605  -1.4428  -1.4413  -1.4175  -1.4140  -1.4120
    -1.4107  -1.4065  -1.3991  -1.3845  -1.3790  -1.3683  -1.3589  -1.3477
    -1.3461  -1.3306  -1.3204  -1.3019  -1.3002  -1.2938  -1.2864  -1.2571
    -1.2551  -1.2472  -1.2449  -1.2401  -1.2313  -1.2186  -1.2165  -1.2066
    -1.1981  -1.1960  -1.1875  -1.1851  -1.1845  -1.1742  -1.1709  -1.1598
    -1.1586  -1.1509  -1.1509  -1.1397  -1.1348  -1.1290  -1.1215  -1.0886
    -1.0857  -1.0822  -1.0786  -1.0780  -1.0681  -1.0405  -1.0233  -1.0220
    -1.0213  -1.0189  -1.0180  -1.0119  -1.0087  -0.9963  -0.9852  -0.9608
    -0.9532  -0.9528  -0.9463  -0.9302  -0.9294  -0.9201  -0.8913  -0.8829
    -0.8558  -0.8545  -0.8281  -0.8275  -0.8236  -0.8234  -0.8212  -0.8167
    -0.8130  -0.8107  -0.8076  -0.8064  -0.7765  -0.7763  -0.7592  -0.7549
    -0.7528  -0.7518  -0.7505  -0.7323  -0.7236  -0.4592  -0.4447  -0.3910
    -0.3699  -0.3489  -0.1912  -0.1256  -0.1244  -0.0828   0.1936   0.2002
     0.5229   0.5363   0.6223   0.6235   0.6640   0.6654   0.8066   0.8196
     0.9319   0.9350   1.0264   1.6190   1.6370   1.6387   1.6744   1.6832
     1.7216   1.7372   1.8067   1.8163   2.0142   2.0160   2.2513   2.3279
     2.3364   2.3471   2.7222   2.7358   2.7995   2.8005   2.8083   2.8092
     2.9568   2.9602   2.9977   3.1008   3.1073   3.3339   3.3366   3.4685
     3.4960   3.5016   3.7658   3.7715   3.8820   3.8992   3.9008   3.9384
     3.9758   4.0848   4.0872   4.3209   4.3251   4.4105   4.4134   4.5347
     4.5355   4.5568   4.5772   4.6829   5.0243   5.3484   5.3671   5.4580
     5.4631   5.5242   5.6427   5.6469   5.6607   5.7068   5.7330   5.7630
     5.7656   5.8091   5.8164   5.8569   6.0208   6.0813   6.1108   6.1240
     6.1328   6.1435   6.1561   6.1572   6.1676   6.1702   6.1768   6.2210

          k =-0.2500 0.2500-0.0833 (167653 PWs)   bands (ev):

   -19.8734  -7.7410  -6.8045  -6.2772  -6.2752  -5.8467  -5.4388  -5.3453
    -5.3437  -5.1488  -5.1482  -5.0326  -5.0307  -4.9521  -4.9297  -4.8563
    -4.7717  -4.7674  -4.7293  -4.7282  -4.5688  -4.5513  -4.5503  -4.5491
    -4.5425  -4.4874  -4.4869  -4.4757  -4.4745  -4.4379  -4.4269  -4.4254
    -4.3835  -4.3831  -4.3501  -4.3491  -4.2986  -4.2965  -4.2878  -4.2848
    -4.2791  -4.2662  -4.2659  -4.2269  -4.2075  -4.2068  -4.2000  -4.1990
    -4.1689  -4.1197  -4.1034  -4.1026  -4.1015  -4.0994  -4.0908  -4.0863
    -4.0853  -4.0840  -4.0241  -4.0204  -3.9743  -3.9703  -3.9631  -3.9498
    -3.9320  -3.9235  -3.9125  -3.9080  -3.9077  -3.9014  -3.8919  -3.8517
    -3.8497  -3.8392  -3.8382  -3.7346  -3.7333  -3.7280  -3.7260  -3.6897
    -3.6852  -3.6659  -3.6375  -3.6361  -3.6082  -3.6070  -3.5880  -3.5859
    -3.5740  -3.5723  -3.5176  -3.5168  -3.4986  -3.4829  -3.4725  -3.4706
    -3.4702  -3.4690  -3.4435  -3.4419  -3.4059  -3.4053  -3.3861  -3.3828
    -3.3520  -3.3492  -3.3331  -3.3042  -3.3040  -3.2675  -3.2667  -3.2317
    -3.2230  -3.2224  -3.2098  -3.2084  -3.2038  -3.2031  -3.1679  -3.1544
    -3.1158  -3.1147  -3.1059  -3.0988  -3.0962  -3.0950  -3.0713  -3.0705
    -3.0507  -3.0494  -3.0485  -3.0220  -3.0213  -3.0141  -3.0116  -3.0110
    -2.9745  -2.9723  -2.9379  -2.9360  -2.9348  -2.9323  -2.9310  -2.8516
    -2.8425  -2.8395  -2.8378  -2.8372  -2.8362  -2.8346  -2.8316  -2.8302
    -2.8296  -2.8204  -2.8125  -2.8009  -2.7962  -2.7933  -2.7922  -2.7783
    -2.7738  -2.7390  -2.7355  -2.7345  -2.7315  -2.7300  -2.7120  -2.7111
    -2.7038  -2.7030  -2.6997  -2.6442  -2.6415  -2.6378  -2.6352  -2.6340
    -2.6314  -2.6054  -2.5544  -2.5429  -2.5424  -2.5389  -2.5288  -2.5280
    -2.5266  -2.5123  -2.5103  -2.4849  -2.4742  -2.4692  -2.4663  -2.4647
    -2.4638  -2.4293  -2.4251  -2.4159  -2.4148  -2.4130  -2.4122  -2.3885
    -2.3651  -2.3508  -2.2978  -2.2950  -2.2890  -2.2769  -2.2755  -2.2703
    -2.2337  -2.2214  -2.2095  -2.1978  -2.1802  -2.1695  -2.1656  -2.1634
    -2.1438  -2.1432  -2.1345  -2.1040  -2.0785  -2.0770  -2.0636  -2.0619
    -2.0602  -2.0529  -2.0507  -2.0377  -2.0352  -2.0312  -2.0306  -2.0263
    -2.0238  -2.0197  -2.0147  -2.0110  -1.9949  -1.9946  -1.9909  -1.9873
    -1.9841  -1.9824  -1.9615  -1.9588  -1.9479  -1.9472  -1.9415  -1.9240
    -1.8958  -1.8704  -1.8616  -1.8340  -1.8176  -1.8167  -1.8097  -1.8030
    -1.7835  -1.7791  -1.7716  -1.7670  -1.7659  -1.7652  -1.7633  -1.7556
    -1.7297  -1.7287  -1.7214  -1.6844  -1.6780  -1.6453  -1.6410  -1.5967
    -1.5940  -1.5814  -1.5614  -1.5534  -1.5527  -1.5368  -1.5347  -1.5184
    -1.5176  -1.5145  -1.5135  -1.5115  -1.5109  -1.5088  -1.5025  -1.4889
    -1.4855  -1.4658  -1.4606  -1.4435  -1.4421  -1.4167  -1.4148  -1.4120
    -1.4108  -1.4057  -1.3992  -1.3852  -1.3779  -1.3690  -1.3591  -1.3473
    -1.3460  -1.3307  -1.3203  -1.3029  -1.2999  -1.2936  -1.2863  -1.2561
    -1.2546  -1.2476  -1.2447  -1.2406  -1.2311  -1.2183  -1.2167  -1.2071
    -1.1983  -1.1959  -1.1870  -1.1854  -1.1851  -1.1745  -1.1716  -1.1595
    -1.1582  -1.1513  -1.1508  -1.1391  -1.1355  -1.1291  -1.1221  -1.0889
    -1.0847  -1.0815  -1.0786  -1.0780  -1.0684  -1.0406  -1.0241  -1.0217
    -1.0213  -1.0195  -1.0185  -1.0120  -1.0078  -0.9964  -0.9849  -0.9614
    -0.9531  -0.9530  -0.9456  -0.9302  -0.9292  -0.9202  -0.8919  -0.8831
    -0.8562  -0.8540  -0.8279  -0.8272  -0.8239  -0.8235  -0.8211  -0.8166
    -0.8131  -0.8105  -0.8080  -0.8062  -0.7768  -0.7758  -0.7605  -0.7552
    -0.7520  -0.7518  -0.7509  -0.7323  -0.7220  -0.4591  -0.4447  -0.3929
    -0.3672  -0.3489  -0.1904  -0.1255  -0.1241  -0.0838   0.1923   0.2015
     0.5207   0.5378   0.6223   0.6241   0.6624   0.6678   0.8045   0.8218
     0.9318   0.9347   1.0267   1.6189   1.6373   1.6385   1.6702   1.6831
     1.7171   1.7434   1.8054   1.8191   2.0126   2.0177   2.2501   2.3246
     2.3395   2.3466   2.7163   2.7381   2.7984   2.8026   2.8075   2.8102
     2.9582   2.9593   2.9959   3.1001   3.1144   3.3332   3.3434   3.4678
     3.4937   3.5027   3.7638   3.7752   3.8774   3.8998   3.9008   3.9359
     3.9794   4.0831   4.0887   4.3229   4.3243   4.4045   4.4165   4.5264
     4.5376   4.5531   4.5795   4.6830   5.0277   5.3367   5.3723   5.4590
     5.4662   5.5333   5.6450   5.6537   5.6577   5.7086   5.7192   5.7566
     5.7698   5.8151   5.8160   5.8605   6.0126   6.0876   6.1090   6.1287
     6.1348   6.1419   6.1512   6.1584   6.1607   6.1705   6.1849   6.2132

          k = 0.2500-0.2500-0.0833 (167653 PWs)   bands (ev):

   -19.8734  -7.7410  -6.8045  -6.2772  -6.2752  -5.8467  -5.4388  -5.3453
    -5.3437  -5.1488  -5.1482  -5.0326  -5.0307  -4.9521  -4.9297  -4.8563
    -4.7717  -4.7674  -4.7293  -4.7282  -4.5688  -4.5513  -4.5503  -4.5491
    -4.5425  -4.4874  -4.4869  -4.4757  -4.4745  -4.4379  -4.4269  -4.4254
    -4.3835  -4.3831  -4.3501  -4.3491  -4.2986  -4.2965  -4.2878  -4.2848
    -4.2791  -4.2662  -4.2659  -4.2269  -4.2075  -4.2068  -4.2000  -4.1990
    -4.1689  -4.1197  -4.1034  -4.1026  -4.1015  -4.0994  -4.0908  -4.0863
    -4.0853  -4.0840  -4.0241  -4.0204  -3.9743  -3.9703  -3.9631  -3.9498
    -3.9320  -3.9235  -3.9125  -3.9080  -3.9077  -3.9014  -3.8919  -3.8517
    -3.8497  -3.8392  -3.8382  -3.7346  -3.7333  -3.7280  -3.7260  -3.6897
    -3.6852  -3.6659  -3.6375  -3.6361  -3.6082  -3.6070  -3.5880  -3.5859
    -3.5740  -3.5723  -3.5176  -3.5168  -3.4986  -3.4829  -3.4725  -3.4706
    -3.4702  -3.4690  -3.4435  -3.4419  -3.4059  -3.4053  -3.3861  -3.3828
    -3.3520  -3.3492  -3.3331  -3.3042  -3.3040  -3.2675  -3.2667  -3.2317
    -3.2230  -3.2224  -3.2098  -3.2084  -3.2038  -3.2031  -3.1679  -3.1544
    -3.1158  -3.1147  -3.1059  -3.0988  -3.0962  -3.0950  -3.0713  -3.0705
    -3.0507  -3.0494  -3.0485  -3.0220  -3.0213  -3.0141  -3.0116  -3.0110
    -2.9745  -2.9723  -2.9379  -2.9360  -2.9348  -2.9323  -2.9310  -2.8516
    -2.8425  -2.8395  -2.8378  -2.8372  -2.8362  -2.8346  -2.8316  -2.8302
    -2.8296  -2.8204  -2.8125  -2.8009  -2.7962  -2.7933  -2.7922  -2.7783
    -2.7738  -2.7390  -2.7355  -2.7345  -2.7315  -2.7300  -2.7120  -2.7111
    -2.7038  -2.7030  -2.6997  -2.6442  -2.6415  -2.6378  -2.6352  -2.6340
    -2.6314  -2.6054  -2.5544  -2.5429  -2.5424  -2.5389  -2.5288  -2.5280
    -2.5266  -2.5123  -2.5103  -2.4849  -2.4742  -2.4692  -2.4663  -2.4647
    -2.4638  -2.4293  -2.4251  -2.4159  -2.4148  -2.4130  -2.4122  -2.3885
    -2.3651  -2.3508  -2.2978  -2.2950  -2.2890  -2.2769  -2.2755  -2.2703
    -2.2337  -2.2214  -2.2095  -2.1978  -2.1802  -2.1695  -2.1656  -2.1634
    -2.1438  -2.1432  -2.1345  -2.1040  -2.0785  -2.0770  -2.0636  -2.0619
    -2.0602  -2.0529  -2.0507  -2.0377  -2.0352  -2.0312  -2.0306  -2.0263
    -2.0238  -2.0197  -2.0147  -2.0110  -1.9949  -1.9946  -1.9909  -1.9873
    -1.9841  -1.9824  -1.9615  -1.9588  -1.9479  -1.9472  -1.9415  -1.9240
    -1.8958  -1.8704  -1.8616  -1.8340  -1.8176  -1.8167  -1.8097  -1.8030
    -1.7835  -1.7791  -1.7716  -1.7670  -1.7659  -1.7652  -1.7633  -1.7556
    -1.7297  -1.7287  -1.7214  -1.6844  -1.6780  -1.6453  -1.6410  -1.5967
    -1.5940  -1.5814  -1.5614  -1.5534  -1.5527  -1.5368  -1.5347  -1.5184
    -1.5176  -1.5145  -1.5135  -1.5115  -1.5109  -1.5088  -1.5025  -1.4889
    -1.4855  -1.4658  -1.4606  -1.4435  -1.4421  -1.4167  -1.4148  -1.4120
    -1.4108  -1.4057  -1.3992  -1.3852  -1.3779  -1.3690  -1.3591  -1.3473
    -1.3460  -1.3307  -1.3203  -1.3029  -1.2999  -1.2936  -1.2863  -1.2561
    -1.2546  -1.2476  -1.2447  -1.2406  -1.2311  -1.2183  -1.2167  -1.2071
    -1.1983  -1.1959  -1.1870  -1.1854  -1.1851  -1.1745  -1.1716  -1.1595
    -1.1582  -1.1513  -1.1508  -1.1391  -1.1355  -1.1291  -1.1221  -1.0889
    -1.0847  -1.0815  -1.0786  -1.0780  -1.0684  -1.0406  -1.0241  -1.0217
    -1.0213  -1.0195  -1.0185  -1.0120  -1.0078  -0.9964  -0.9849  -0.9614
    -0.9531  -0.9530  -0.9456  -0.9302  -0.9292  -0.9202  -0.8919  -0.8831
    -0.8562  -0.8540  -0.8279  -0.8272  -0.8239  -0.8235  -0.8211  -0.8166
    -0.8131  -0.8105  -0.8080  -0.8062  -0.7768  -0.7758  -0.7605  -0.7552
    -0.7520  -0.7518  -0.7509  -0.7323  -0.7220  -0.4591  -0.4447  -0.3929
    -0.3672  -0.3489  -0.1904  -0.1255  -0.1241  -0.0838   0.1923   0.2015
     0.5207   0.5378   0.6223   0.6241   0.6624   0.6678   0.8045   0.8218
     0.9318   0.9347   1.0267   1.6189   1.6373   1.6385   1.6702   1.6831
     1.7171   1.7434   1.8054   1.8191   2.0126   2.0177   2.2501   2.3246
     2.3395   2.3466   2.7163   2.7381   2.7984   2.8026   2.8075   2.8102
     2.9582   2.9593   2.9959   3.1001   3.1144   3.3332   3.3434   3.4678
     3.4937   3.5027   3.7638   3.7752   3.8774   3.8998   3.9008   3.9359
     3.9794   4.0831   4.0887   4.3229   4.3243   4.4045   4.4165   4.5264
     4.5376   4.5531   4.5795   4.6830   5.0278   5.3369   5.3717   5.4588
     5.4662   5.5336   5.6454   5.6539   5.6589   5.7070   5.7191   5.7562
     5.7698   5.8151   5.8160   5.8605   6.0124   6.0826   6.1082   6.1292
     6.1364   6.1420   6.1512   6.1581   6.1609   6.1704   6.1924   6.2202

          k =-0.2500 0.2500 0.2500 (167588 PWs)   bands (ev):

   -19.8734  -7.7410  -6.8045  -6.2772  -6.2752  -5.8467  -5.4388  -5.3453
    -5.3437  -5.1488  -5.1482  -5.0326  -5.0307  -4.9521  -4.9297  -4.8563
    -4.7717  -4.7674  -4.7293  -4.7282  -4.5688  -4.5513  -4.5503  -4.5491
    -4.5425  -4.4874  -4.4869  -4.4757  -4.4745  -4.4379  -4.4269  -4.4254
    -4.3835  -4.3831  -4.3501  -4.3491  -4.2985  -4.2964  -4.2878  -4.2848
    -4.2791  -4.2662  -4.2659  -4.2269  -4.2075  -4.2068  -4.2000  -4.1990
    -4.1689  -4.1197  -4.1034  -4.1026  -4.1015  -4.0994  -4.0908  -4.0863
    -4.0853  -4.0840  -4.0241  -4.0204  -3.9743  -3.9703  -3.9631  -3.9498
    -3.9320  -3.9235  -3.9125  -3.9080  -3.9077  -3.9014  -3.8919  -3.8517
    -3.8497  -3.8392  -3.8382  -3.7346  -3.7333  -3.7280  -3.7260  -3.6897
    -3.6852  -3.6659  -3.6375  -3.6361  -3.6082  -3.6070  -3.5880  -3.5859
    -3.5740  -3.5723  -3.5176  -3.5168  -3.4986  -3.4829  -3.4725  -3.4706
    -3.4702  -3.4690  -3.4435  -3.4419  -3.4059  -3.4053  -3.3861  -3.3828
    -3.3519  -3.3491  -3.3331  -3.3042  -3.3040  -3.2675  -3.2667  -3.2317
    -3.2230  -3.2224  -3.2098  -3.2084  -3.2037  -3.2031  -3.1679  -3.1544
    -3.1158  -3.1147  -3.1059  -3.0988  -3.0962  -3.0950  -3.0713  -3.0705
    -3.0507  -3.0494  -3.0485  -3.0220  -3.0213  -3.0140  -3.0116  -3.0109
    -2.9745  -2.9723  -2.9379  -2.9360  -2.9349  -2.9323  -2.9310  -2.8516
    -2.8425  -2.8395  -2.8378  -2.8372  -2.8362  -2.8346  -2.8316  -2.8302
    -2.8296  -2.8204  -2.8125  -2.8009  -2.7962  -2.7933  -2.7922  -2.7783
    -2.7738  -2.7390  -2.7355  -2.7345  -2.7315  -2.7300  -2.7120  -2.7111
    -2.7038  -2.7030  -2.6997  -2.6442  -2.6415  -2.6378  -2.6352  -2.6340
    -2.6313  -2.6054  -2.5544  -2.5429  -2.5424  -2.5389  -2.5288  -2.5280
    -2.5266  -2.5123  -2.5103  -2.4849  -2.4742  -2.4692  -2.4663  -2.4647
    -2.4638  -2.4293  -2.4251  -2.4159  -2.4148  -2.4130  -2.4122  -2.3885
    -2.3651  -2.3507  -2.2978  -2.2950  -2.2890  -2.2769  -2.2756  -2.2703
    -2.2337  -2.2214  -2.2095  -2.1978  -2.1802  -2.1695  -2.1656  -2.1634
    -2.1438  -2.1432  -2.1345  -2.1040  -2.0785  -2.0770  -2.0636  -2.0619
    -2.0602  -2.0529  -2.0507  -2.0377  -2.0352  -2.0312  -2.0306  -2.0263
    -2.0238  -2.0197  -2.0147  -2.0110  -1.9949  -1.9946  -1.9909  -1.9873
    -1.9841  -1.9824  -1.9615  -1.9588  -1.9479  -1.9472  -1.9415  -1.9240
    -1.8958  -1.8704  -1.8616  -1.8340  -1.8176  -1.8167  -1.8097  -1.8030
    -1.7835  -1.7791  -1.7716  -1.7670  -1.7659  -1.7652  -1.7633  -1.7556
    -1.7297  -1.7287  -1.7214  -1.6844  -1.6780  -1.6453  -1.6410  -1.5967
    -1.5941  -1.5814  -1.5614  -1.5534  -1.5527  -1.5368  -1.5347  -1.5184
    -1.5176  -1.5145  -1.5135  -1.5115  -1.5108  -1.5087  -1.5025  -1.4889
    -1.4855  -1.4658  -1.4606  -1.4435  -1.4421  -1.4167  -1.4148  -1.4120
    -1.4108  -1.4057  -1.3992  -1.3852  -1.3779  -1.3690  -1.3591  -1.3473
    -1.3460  -1.3307  -1.3203  -1.3029  -1.2999  -1.2936  -1.2863  -1.2561
    -1.2545  -1.2476  -1.2447  -1.2406  -1.2311  -1.2183  -1.2167  -1.2071
    -1.1983  -1.1959  -1.1869  -1.1853  -1.1851  -1.1745  -1.1716  -1.1595
    -1.1582  -1.1513  -1.1508  -1.1391  -1.1355  -1.1291  -1.1221  -1.0889
    -1.0847  -1.0815  -1.0786  -1.0780  -1.0684  -1.0406  -1.0240  -1.0217
    -1.0213  -1.0195  -1.0185  -1.0120  -1.0078  -0.9964  -0.9849  -0.9614
    -0.9531  -0.9530  -0.9456  -0.9302  -0.9292  -0.9202  -0.8919  -0.8831
    -0.8562  -0.8540  -0.8279  -0.8272  -0.8239  -0.8235  -0.8212  -0.8166
    -0.8131  -0.8105  -0.8080  -0.8062  -0.7768  -0.7758  -0.7605  -0.7552
    -0.7520  -0.7517  -0.7508  -0.7323  -0.7220  -0.4591  -0.4447  -0.3929
    -0.3672  -0.3489  -0.1904  -0.1255  -0.1241  -0.0838   0.1923   0.2015
     0.5207   0.5378   0.6223   0.6241   0.6624   0.6678   0.8045   0.8218
     0.9318   0.9347   1.0267   1.6189   1.6373   1.6385   1.6702   1.6831
     1.7171   1.7434   1.8054   1.8191   2.0126   2.0177   2.2501   2.3246
     2.3395   2.3466   2.7163   2.7381   2.7984   2.8027   2.8075   2.8102
     2.9582   2.9593   2.9959   3.1001   3.1144   3.3332   3.3434   3.4678
     3.4937   3.5027   3.7638   3.7752   3.8774   3.8998   3.9008   3.9360
     3.9794   4.0831   4.0887   4.3229   4.3243   4.4045   4.4165   4.5264
     4.5376   4.5531   4.5795   4.6830   5.0227   5.3350   5.3670   5.4570
     5.4640   5.5272   5.6455   5.6541   5.6833   5.7031   5.7495   5.7588
     5.7725   5.8151   5.8161   5.8605   6.0247   6.0784   6.1031   6.1257
     6.1346   6.1508   6.1577   6.1605   6.1689   6.1724   6.2017   6.2390

     the Fermi energy is     0.8847 ev

!    total energy              =   -7425.28971074 Ry
     Harris-Foulkes estimate   =   -7425.28971076 Ry
     estimated scf accuracy    <          6.0E-09 Ry

     The total energy is the sum of the following terms:

     one-electron contribution =  -48806.62697152 Ry
     hartree contribution      =   24954.52407885 Ry
     xc contribution           =   -3604.23103761 Ry
     ewald contribution        =   20031.04680506 Ry
     smearing contrib. (-TS)   =      -0.00258552 Ry

     convergence has been achieved in  25 iterations

     Writing output data file 6306898.save

     init_run     :    130.79s CPU    138.42s WALL (       1 calls)
     electrons    :   6588.74s CPU   7192.24s WALL (       1 calls)

     Called by init_run:
     wfcinit      :    100.61s CPU    107.28s WALL (       1 calls)
     potinit      :      7.66s CPU      8.26s WALL (       1 calls)

     Called by electrons:
     c_bands      :   5337.14s CPU   5753.73s WALL (      26 calls)
     sum_band     :    784.94s CPU    857.05s WALL (      26 calls)
     v_of_rho     :    102.00s CPU    114.82s WALL (      26 calls)
     newd         :    377.00s CPU    381.48s WALL (      26 calls)
     mix_rho      :      3.09s CPU      3.45s WALL (      26 calls)
     vdW_energy   :     12.06s CPU     13.40s WALL (      26 calls)
     vdW_ffts     :     49.46s CPU     55.75s WALL (      52 calls)
     vdW_v        :     12.17s CPU     13.19s WALL (      26 calls)

     Called by c_bands:
     init_us_2    :     14.88s CPU     15.15s WALL (     318 calls)
     cegterg      :   5259.89s CPU   5591.63s WALL (     156 calls)

     Called by *egterg:
     h_psi        :   2201.31s CPU   2482.94s WALL (     770 calls)
     s_psi        :    340.83s CPU    342.81s WALL (     770 calls)
     g_psi        :      4.37s CPU      4.33s WALL (     608 calls)
     cdiaghg      :   1463.61s CPU   1468.07s WALL (     758 calls)

     Called by h_psi:
     add_vuspsi   :    344.90s CPU    347.02s WALL (     770 calls)

     General routines
     calbec       :    564.88s CPU    566.91s WALL (     926 calls)
     fft          :    126.50s CPU    137.64s WALL (    1716 calls)
     ffts         :      1.30s CPU      1.58s WALL (      52 calls)
     fftw         :   1485.93s CPU   1780.32s WALL (  420036 calls)
     interpolate  :      3.77s CPU      4.55s WALL (      52 calls)
     davcio       :      0.00s CPU      0.19s WALL (       6 calls)

     Parallel routines
     fft_scatter  :   1072.00s CPU   1300.94s WALL (  421804 calls)

     PWSCF        :     1h52m CPU        2h 2m WALL


   This run was terminated on:  20:50: 9  29Aug2015            

=------------------------------------------------------------------------------=
   JOB DONE.
=------------------------------------------------------------------------------=
