
     Program PWSCF v.5.1.2 starts on 24Jun2015 at 18:54:53 

     This program is part of the open-source Quantum ESPRESSO suite
     for quantum simulation of materials; please cite
         "P. Giannozzi et al., J. Phys.:Condens. Matter 21 395502 (2009);
          URL http://www.quantum-espresso.org", 
     in publications or presentations arising from this work. More details at
     http://www.quantum-espresso.org/quote

     Parallel version (MPI), running on    32 processors
     R & G space division:  proc/nbgrp/npool/nimage =      32
     Reading input from top.O1.Au62.d.3.0.phi.25.psi.0.in
Warning: card &IONS ignored
Warning: card / ignored
Warning: card &CELL ignored
Warning: card / ignored

     Current dimensions of program PWSCF are:
     Max number of different atomic species (ntypx) = 10
     Max number of k-points (npk) =  40000
     Max angular momentum in pseudopotentials (lmaxx) =  3

     IMPORTANT: XC functional enforced from input :
     Exchange-correlation      = VDW-DF ( 1  4  4  0 1 0)
     Any further DFT definition will be discarded
     Please, verify this is what you really want


     Subspace diagonalization in iterative solution of the eigenvalue problem:
     a serial algorithm will be used


     Parallelization info
     --------------------
     sticks:   dense  smooth     PW     G-vecs:    dense   smooth      PW
     Min         578     289     74               118518    41891    5486
     Max         579     290     75               118533    41932    5497
     Sum       18505    9265   2385              3792731  1341081  175711


     Title: 
     top.O1.Au62.d.3.0.phi.25.psi.0                                             


     bravais-lattice index     =            8
     lattice parameter (alat)  =      24.1233  a.u.
     unit-cell volume          =   28076.2361 (a.u.)^3
     number of atoms/cell      =           75
     number of atomic types    =            3
     number of electrons       =       800.00
     number of Kohn-Sham states=          480
     kinetic-energy cutoff     =      50.0000  Ry
     charge density cutoff     =     400.0000  Ry
     convergence threshold     =      1.0E-08
     mixing beta               =       0.7000
     number of iterations used =            8  plain     mixing
     Exchange-correlation      = VDW-DF ( 1  4  4  0 1 0)

     celldm(1)=  24.123277  celldm(2)=   1.000000  celldm(3)=   2.000000
     celldm(4)=   0.000000  celldm(5)=   0.000000  celldm(6)=   0.000000

     crystal axes: (cart. coord. in units of alat)
               a(1) = (   1.000000   0.000000   0.000000 )  
               a(2) = (   0.000000   1.000000   0.000000 )  
               a(3) = (   0.000000   0.000000   2.000000 )  

     reciprocal axes: (cart. coord. in units 2 pi/alat)
               b(1) = (  1.000000  0.000000  0.000000 )  
               b(2) = (  0.000000  1.000000  0.000000 )  
               b(3) = (  0.000000  0.000000  0.500000 )  


     PseudoPot. # 1 for Au read from file:
     /home/scc/andrejb/qe/pseudo/Au.pbe-nd-van.UPF
     MD5 check sum: 458681b50f36d87ef23c61b04bba420a
     Pseudo is Ultrasoft + core correction, Zval = 11.0
     Generated by new atomic code, or converted to UPF format
     Using radial grid of  985 points,  3 beta functions with: 
                l(1) =   1
                l(2) =   2
                l(3) =   2
     Q(r) pseudized with  8 coefficients,  rinner =    1.100   1.100   1.100
                                                       1.100   1.100

     PseudoPot. # 2 for H  read from file:
     /home/scc/andrejb/qe/pseudo/H.pbe-van_ak.UPF
     MD5 check sum: 403db7282739603aa925980fa9b8608d
     Pseudo is Ultrasoft, Zval =  1.0
     Generated by new atomic code, or converted to UPF format
     Using radial grid of  615 points,  1 beta functions with: 
                l(1) =   0
     Q(r) pseudized with  8 coefficients,  rinner =    0.800

     PseudoPot. # 3 for O  read from file:
     /home/scc/andrejb/qe/pseudo/O.pbe-van_ak.UPF
     MD5 check sum: 4b8c549914a63cae506c6ff22b5af4fe
     Pseudo is Ultrasoft, Zval =  6.0
     Generated by new atomic code, or converted to UPF format
     Using radial grid of  737 points,  4 beta functions with: 
                l(1) =   0
                l(2) =   0
                l(3) =   1
                l(4) =   1
     Q(r) pseudized with  8 coefficients,  rinner =    0.800   0.800   0.800


     vdW kernel table read from file vdW_kernel_table
     MD5 check sum: 48e77a2e26edf626eeb0eaa751ad5cac

     atomic species   valence    mass     pseudopotential
        Au            11.00   196.96657     Au( 1.00)
        H              1.00     1.01000     H ( 1.00)
        O              6.00    16.00000     O ( 1.00)

     No symmetry found



   Cartesian axes

     site n.     atom                  positions (alat units)
         1           O   tau(   1) = (   0.4998324   0.3332216   0.7343272  )
         2           H   tau(   2) = (   0.4742046   0.2775985   0.7798211  )
         3           H   tau(   3) = (   0.5246755   0.3871743   0.7821848  )
         4           Au  tau(   4) = (   0.0000000   0.0000000   0.0000000  )
         5           Au  tau(   5) = (   0.3332217   0.0000000   0.0000000  )
         6           Au  tau(   6) = (   0.6664435   0.0000000   0.0000000  )
         7           Au  tau(   7) = (   0.1666109   0.1666109   0.0000000  )
         8           Au  tau(   8) = (   0.4998326   0.1666109   0.0000000  )
         9           Au  tau(   9) = (   0.8330542   0.1666109   0.0000000  )
        10           Au  tau(  10) = (   0.0000000   0.3332217   0.0000000  )
        11           Au  tau(  11) = (   0.3332217   0.3332217   0.0000000  )
        12           Au  tau(  12) = (   0.6664435   0.3332217   0.0000000  )
        13           Au  tau(  13) = (   0.1666109   0.4998326   0.0000000  )
        14           Au  tau(  14) = (   0.4998326   0.4998326   0.0000000  )
        15           Au  tau(  15) = (   0.8330542   0.4998326   0.0000000  )
        16           Au  tau(  16) = (   0.0000000   0.6664435   0.0000000  )
        17           Au  tau(  17) = (   0.3332217   0.6664435   0.0000000  )
        18           Au  tau(  18) = (   0.6664435   0.6664435   0.0000000  )
        19           Au  tau(  19) = (   0.1666109   0.8330542   0.0000000  )
        20           Au  tau(  20) = (   0.4998326   0.8330542   0.0000000  )
        21           Au  tau(  21) = (   0.8330542   0.8330542   0.0000000  )
        22           Au  tau(  22) = (   0.1666109   0.0000000   0.1666109  )
        23           Au  tau(  23) = (   0.4998326   0.0000000   0.1666109  )
        24           Au  tau(  24) = (   0.8330542   0.0000000   0.1666109  )
        25           Au  tau(  25) = (   0.0000000   0.1666109   0.1666109  )
        26           Au  tau(  26) = (   0.3332217   0.1666109   0.1666109  )
        27           Au  tau(  27) = (   0.6664435   0.1666109   0.1666109  )
        28           Au  tau(  28) = (   0.1666109   0.3332217   0.1666109  )
        29           Au  tau(  29) = (   0.4998326   0.3332217   0.1666109  )
        30           Au  tau(  30) = (   0.8330542   0.3332217   0.1666109  )
        31           Au  tau(  31) = (   0.0000000   0.4998326   0.1666109  )
        32           Au  tau(  32) = (   0.3332217   0.4998326   0.1666109  )
        33           Au  tau(  33) = (   0.6664435   0.4998326   0.1666109  )
        34           Au  tau(  34) = (   0.1666109   0.6664435   0.1666109  )
        35           Au  tau(  35) = (   0.4998326   0.6664435   0.1666109  )
        36           Au  tau(  36) = (   0.8330542   0.6664435   0.1666109  )
        37           Au  tau(  37) = (   0.0000000   0.8330542   0.1666109  )
        38           Au  tau(  38) = (   0.3332217   0.8330542   0.1666109  )
        39           Au  tau(  39) = (   0.6664435   0.8330542   0.1666109  )
        40           Au  tau(  40) = (  -0.0000182  -0.0000182   0.3335478  )
        41           Au  tau(  41) = (   0.3332215  -0.0000181   0.3335472  )
        42           Au  tau(  42) = (   0.6664447  -0.0000183   0.3335481  )
        43           Au  tau(  43) = (  -0.0000181   0.3332215   0.3335472  )
        44           Au  tau(  44) = (   0.3332215   0.3332215   0.3335468  )
        45           Au  tau(  45) = (   0.6664445   0.3332215   0.3335478  )
        46           Au  tau(  46) = (  -0.0000183   0.6664447   0.3335481  )
        47           Au  tau(  47) = (   0.3332215   0.6664445   0.3335478  )
        48           Au  tau(  48) = (   0.6664446   0.6664446   0.3335486  )
        49           Au  tau(  49) = (   0.1666097   0.1666097   0.3335483  )
        50           Au  tau(  50) = (   0.4998320   0.1666098   0.3335477  )
        51           Au  tau(  51) = (   0.8330732   0.1666096   0.3335481  )
        52           Au  tau(  52) = (   0.1666098   0.4998320   0.3335477  )
        53           Au  tau(  53) = (   0.4998321   0.4998321   0.3335470  )
        54           Au  tau(  54) = (   0.8330730   0.4998322   0.3335474  )
        55           Au  tau(  55) = (   0.1666096   0.8330732   0.3335481  )
        56           Au  tau(  56) = (   0.4998322   0.8330730   0.3335474  )
        57           Au  tau(  57) = (   0.8330731   0.8330731   0.3335478  )
        58           Au  tau(  58) = (   0.1666104  -0.0000111   0.4993095  )
        59           Au  tau(  59) = (   0.4998323  -0.0000112   0.4993099  )
        60           Au  tau(  60) = (   0.8330661  -0.0000111   0.4993009  )
        61           Au  tau(  61) = (  -0.0000111   0.1666104   0.4993095  )
        62           Au  tau(  62) = (   0.3332214   0.1666106   0.4993185  )
        63           Au  tau(  63) = (   0.6664437   0.1666106   0.4993187  )
        64           Au  tau(  64) = (   0.1666106   0.3332214   0.4993185  )
        65           Au  tau(  65) = (   0.4998324   0.3332216   0.4993185  )
        66           Au  tau(  66) = (   0.8330659   0.3332215   0.4993103  )
        67           Au  tau(  67) = (  -0.0000112   0.4998323   0.4993099  )
        68           Au  tau(  68) = (   0.3332216   0.4998324   0.4993185  )
        69           Au  tau(  69) = (   0.6664436   0.4998325   0.4993187  )
        70           Au  tau(  70) = (   0.1666106   0.6664437   0.4993187  )
        71           Au  tau(  71) = (   0.4998325   0.6664436   0.4993187  )
        72           Au  tau(  72) = (   0.8330658   0.6664438   0.4993102  )
        73           Au  tau(  73) = (  -0.0000111   0.8330661   0.4993009  )
        74           Au  tau(  74) = (   0.3332215   0.8330659   0.4993103  )
        75           Au  tau(  75) = (   0.6664438   0.8330658   0.4993102  )

     number of k points=     6  Marzari-Vanderbilt smearing, width (Ry)=  0.0200
                       cart. coord. in units 2pi/alat
        k(    1) = (   0.2500000   0.2500000   0.0833333), wk =   0.3333333
        k(    2) = (   0.2500000   0.2500000  -0.2500000), wk =   0.3333333
        k(    3) = (  -0.2500000  -0.2500000   0.0833333), wk =   0.3333333
        k(    4) = (  -0.2500000   0.2500000  -0.0833333), wk =   0.3333333
        k(    5) = (   0.2500000  -0.2500000  -0.0833333), wk =   0.3333333
        k(    6) = (  -0.2500000   0.2500000   0.2500000), wk =   0.3333333

     Dense  grid:  3792731 G-vectors     FFT dimensions: ( 160, 160, 320)

     Smooth grid:  1341081 G-vectors     FFT dimensions: ( 120, 120, 225)

     Largest allocated arrays     est. size (Mb)     dimensions
        Kohn-Sham Wavefunctions        38.58 Mb     (    5267,  480)
        NL pseudopotentials            76.03 Mb     (    5267,  946)
        Each V/rho on FFT grid          3.91 Mb     (  256000)
        Each G-vector array             0.90 Mb     (  118520)
        G-vector shells                 0.08 Mb     (   10286)
     Largest temporary arrays     est. size (Mb)     dimensions
        Auxiliary wavefunctions       154.31 Mb     (    5267, 1920)
        Each subspace H/S matrix       56.25 Mb     (    1920, 1920)
        Each <psi_i|beta_j> matrix      6.93 Mb     (     946,  480)
        Arrays for rho mixing          31.25 Mb     (  256000,    8)

     Initial potential from superposition of free atoms
     Check: negative starting charge=   -1.945064

     starting charge  799.16392, renormalised to  800.00000

     negative rho (up, down):  1.947E+00 0.000E+00


     ************************************************************************
     *
     * You are using vdW-DF for exchange-correlation in this calculation.
     * Please cite the following three references that made this development
     * possible:
     *
     *   M. Dion, H. Rydberg, E. Schroder, D. C. Langreth, and
     *   B. I. Lundqvist, Phys. Rev. Lett. 92, 246401 (2004).
     *
     *   T. Thonhauser, V. R. Cooper, S. Li, A. Puzder, P. Hyldgaard, and
     *   D. C. Langreth, Phys. Rev. B 76, 125112 (2007).
     *
     *   G. Roman-Perez and J. M. Soler, Phys. Rev. Lett. 103, 096102 (2009).
     *
     *
     * If you are using vdW-DF2, please also cite:
     *
     *   K. Lee, E. D. Murray, L. Kong, B. I. Lundqvist, and
     *   D. C. Langreth, Phys. Rev. B 82, 081101(R) (2010).
     *
     *
     * If you are calculating the stress with vdW-DF, please also cite:
     *
     *   R. Sabatini, E. Kucukbenli, B. Kolb, T. Thonhauser, and
     *   S. de Gironcoli, J. Phys.: Condens. Matter 24, 424209 (2012).
     *
     ************************************************************************

     Carrying out vdW-DF run using the following parameters:

     Nqs =      20    Nr_points =    1024   r_max =   100.000
     q_mesh =
               0.00001000     0.04494208     0.09755937     0.15916263
               0.23128650     0.31572767     0.41458969     0.53033537
               0.66584808     0.82450364     1.01025438     1.22772762
               1.48234092     1.78043706     2.12944203     2.53805004
               3.01644009     3.57652955     4.23227104     5.00000000

     Gradients computed in reciprocal space

     ************************************************************************


     Starting wfc are  654 randomized atomic wfcs

     total cpu time spent up to now is      125.5 secs

     Self-consistent Calculation

     iteration #  1     ecut=    50.00 Ry     beta=0.70
     Davidson diagonalization with overlap
     ethr =  1.00E-02,  avg # of iterations =  3.0

     Threshold (ethr) on eigenvalues was too large:
     Diagonalizing with lowered threshold

     Davidson diagonalization with overlap
     ethr =  4.30E-04,  avg # of iterations =  2.5

     negative rho (up, down):  1.947E+00 0.000E+00

     total cpu time spent up to now is      515.0 secs

     total energy              =   -7423.00197499 Ry
     Harris-Foulkes estimate   =   -7426.09378997 Ry
     estimated scf accuracy    <       3.81479631 Ry

     iteration #  2     ecut=    50.00 Ry     beta=0.70
     Davidson diagonalization with overlap
     ethr =  4.77E-04,  avg # of iterations = 11.2

     negative rho (up, down):  1.941E+00 0.000E+00

     total cpu time spent up to now is     1135.2 secs

     total energy              =   -7414.47567998 Ry
     Harris-Foulkes estimate   =   -7432.81156534 Ry
     estimated scf accuracy    <      97.41000149 Ry

     iteration #  3     ecut=    50.00 Ry     beta=0.70
     Davidson diagonalization with overlap
     ethr =  4.77E-04,  avg # of iterations =  6.3

     negative rho (up, down):  1.951E+00 0.000E+00

     total cpu time spent up to now is     1543.2 secs

     total energy              =   -7424.09900805 Ry
     Harris-Foulkes estimate   =   -7425.87736861 Ry
     estimated scf accuracy    <       7.50224477 Ry

     iteration #  4     ecut=    50.00 Ry     beta=0.70
     Davidson diagonalization with overlap
     ethr =  4.77E-04,  avg # of iterations =  5.3

     negative rho (up, down):  1.954E+00 0.000E+00

     total cpu time spent up to now is     1779.5 secs

     total energy              =   -7424.76931353 Ry
     Harris-Foulkes estimate   =   -7425.72491960 Ry
     estimated scf accuracy    <       5.82253449 Ry

     iteration #  5     ecut=    50.00 Ry     beta=0.70
     Davidson diagonalization with overlap
     ethr =  4.77E-04,  avg # of iterations =  6.2

     negative rho (up, down):  1.962E+00 0.000E+00

     total cpu time spent up to now is     2020.7 secs

     total energy              =   -7425.12583006 Ry
     Harris-Foulkes estimate   =   -7425.54307088 Ry
     estimated scf accuracy    <       3.02818699 Ry

     iteration #  6     ecut=    50.00 Ry     beta=0.70
     Davidson diagonalization with overlap
     ethr =  3.79E-04,  avg # of iterations =  3.5

     negative rho (up, down):  1.966E+00 0.000E+00

     total cpu time spent up to now is     2221.4 secs

     total energy              =   -7425.28406414 Ry
     Harris-Foulkes estimate   =   -7425.33188081 Ry
     estimated scf accuracy    <       0.15771689 Ry

     iteration #  7     ecut=    50.00 Ry     beta=0.70
     Davidson diagonalization with overlap
     ethr =  1.97E-05,  avg # of iterations =  9.3

     negative rho (up, down):  1.969E+00 0.000E+00

     total cpu time spent up to now is     2518.7 secs

     total energy              =   -7425.28618713 Ry
     Harris-Foulkes estimate   =   -7425.32333742 Ry
     estimated scf accuracy    <       0.17005593 Ry

     iteration #  8     ecut=    50.00 Ry     beta=0.70
     Davidson diagonalization with overlap
     ethr =  1.97E-05,  avg # of iterations =  3.2

     negative rho (up, down):  1.970E+00 0.000E+00

     total cpu time spent up to now is     2726.6 secs

     total energy              =   -7425.28968920 Ry
     Harris-Foulkes estimate   =   -7425.31074497 Ry
     estimated scf accuracy    <       0.09138384 Ry

     iteration #  9     ecut=    50.00 Ry     beta=0.70
     Davidson diagonalization with overlap
     ethr =  1.14E-05,  avg # of iterations =  6.3

     negative rho (up, down):  1.971E+00 0.000E+00

     total cpu time spent up to now is     2964.9 secs

     total energy              =   -7425.29282066 Ry
     Harris-Foulkes estimate   =   -7425.30373362 Ry
     estimated scf accuracy    <       0.04069380 Ry

     iteration # 10     ecut=    50.00 Ry     beta=0.70
     Davidson diagonalization with overlap
     ethr =  5.09E-06,  avg # of iterations =  8.0

     negative rho (up, down):  1.972E+00 0.000E+00

     total cpu time spent up to now is     3230.0 secs

     total energy              =   -7425.29540465 Ry
     Harris-Foulkes estimate   =   -7425.29832024 Ry
     estimated scf accuracy    <       0.00836960 Ry

     iteration # 11     ecut=    50.00 Ry     beta=0.70
     Davidson diagonalization with overlap
     ethr =  1.05E-06,  avg # of iterations =  9.3

     negative rho (up, down):  1.973E+00 0.000E+00

     total cpu time spent up to now is     3509.5 secs

     total energy              =   -7425.29610841 Ry
     Harris-Foulkes estimate   =   -7425.29704965 Ry
     estimated scf accuracy    <       0.00326864 Ry

     iteration # 12     ecut=    50.00 Ry     beta=0.70
     Davidson diagonalization with overlap
     ethr =  4.09E-07,  avg # of iterations =  2.7

     negative rho (up, down):  1.974E+00 0.000E+00

     total cpu time spent up to now is     3710.4 secs

     total energy              =   -7425.29581565 Ry
     Harris-Foulkes estimate   =   -7425.29654668 Ry
     estimated scf accuracy    <       0.00109629 Ry

     iteration # 13     ecut=    50.00 Ry     beta=0.70
     Davidson diagonalization with overlap
     ethr =  1.37E-07,  avg # of iterations =  5.0

     negative rho (up, down):  1.974E+00 0.000E+00

     total cpu time spent up to now is     4028.1 secs

     total energy              =   -7425.29530700 Ry
     Harris-Foulkes estimate   =   -7425.29712559 Ry
     estimated scf accuracy    <       0.00792443 Ry

     iteration # 14     ecut=    50.00 Ry     beta=0.70
     Davidson diagonalization with overlap
     ethr =  1.37E-07,  avg # of iterations =  3.0

     negative rho (up, down):  1.974E+00 0.000E+00

     total cpu time spent up to now is     4286.2 secs

     total energy              =   -7425.29608402 Ry
     Harris-Foulkes estimate   =   -7425.29629004 Ry
     estimated scf accuracy    <       0.00089966 Ry

     iteration # 15     ecut=    50.00 Ry     beta=0.70
     Davidson diagonalization with overlap
     ethr =  1.12E-07,  avg # of iterations =  2.0

     negative rho (up, down):  1.974E+00 0.000E+00

     total cpu time spent up to now is     4479.7 secs

     total energy              =   -7425.29618629 Ry
     Harris-Foulkes estimate   =   -7425.29623092 Ry
     estimated scf accuracy    <       0.00021231 Ry

     iteration # 16     ecut=    50.00 Ry     beta=0.70
     Davidson diagonalization with overlap
     ethr =  2.65E-08,  avg # of iterations =  2.0

     negative rho (up, down):  1.974E+00 0.000E+00

     total cpu time spent up to now is     4668.0 secs

     total energy              =   -7425.29617842 Ry
     Harris-Foulkes estimate   =   -7425.29624374 Ry
     estimated scf accuracy    <       0.00044470 Ry

     iteration # 17     ecut=    50.00 Ry     beta=0.70
     Davidson diagonalization with overlap
     ethr =  2.65E-08,  avg # of iterations =  1.0

     negative rho (up, down):  1.974E+00 0.000E+00

     total cpu time spent up to now is     4855.0 secs

     total energy              =   -7425.29620734 Ry
     Harris-Foulkes estimate   =   -7425.29621956 Ry
     estimated scf accuracy    <       0.00006688 Ry

     iteration # 18     ecut=    50.00 Ry     beta=0.70
     Davidson diagonalization with overlap
     ethr =  8.36E-09,  avg # of iterations =  2.0

     negative rho (up, down):  1.974E+00 0.000E+00

     total cpu time spent up to now is     5045.2 secs

     total energy              =   -7425.29621351 Ry
     Harris-Foulkes estimate   =   -7425.29621478 Ry
     estimated scf accuracy    <       0.00000506 Ry

     iteration # 19     ecut=    50.00 Ry     beta=0.70
     Davidson diagonalization with overlap
     ethr =  6.33E-10,  avg # of iterations =  3.0

     negative rho (up, down):  1.974E+00 0.000E+00

     total cpu time spent up to now is     5260.6 secs

     total energy              =   -7425.29621409 Ry
     Harris-Foulkes estimate   =   -7425.29621463 Ry
     estimated scf accuracy    <       0.00000197 Ry

     iteration # 20     ecut=    50.00 Ry     beta=0.70
     Davidson diagonalization with overlap
     ethr =  2.47E-10,  avg # of iterations =  3.0

     negative rho (up, down):  1.974E+00 0.000E+00

     total cpu time spent up to now is     5462.3 secs

     total energy              =   -7425.29621436 Ry
     Harris-Foulkes estimate   =   -7425.29621474 Ry
     estimated scf accuracy    <       0.00000234 Ry

     iteration # 21     ecut=    50.00 Ry     beta=0.70
     Davidson diagonalization with overlap
     ethr =  2.47E-10,  avg # of iterations =  2.0

     negative rho (up, down):  1.974E+00 0.000E+00

     total cpu time spent up to now is     5655.6 secs

     total energy              =   -7425.29621460 Ry
     Harris-Foulkes estimate   =   -7425.29621470 Ry
     estimated scf accuracy    <       0.00000064 Ry

     iteration # 22     ecut=    50.00 Ry     beta=0.70
     Davidson diagonalization with overlap
     ethr =  7.96E-11,  avg # of iterations =  2.0

     negative rho (up, down):  1.974E+00 0.000E+00

     total cpu time spent up to now is     5847.1 secs

     total energy              =   -7425.29621468 Ry
     Harris-Foulkes estimate   =   -7425.29621472 Ry
     estimated scf accuracy    <       0.00000015 Ry

     iteration # 23     ecut=    50.00 Ry     beta=0.70
     Davidson diagonalization with overlap
     ethr =  1.86E-11,  avg # of iterations =  3.0

     negative rho (up, down):  1.974E+00 0.000E+00

     total cpu time spent up to now is     6056.4 secs

     total energy              =   -7425.29621469 Ry
     Harris-Foulkes estimate   =   -7425.29621472 Ry
     estimated scf accuracy    <       0.00000007 Ry

     iteration # 24     ecut=    50.00 Ry     beta=0.70
     Davidson diagonalization with overlap
     ethr =  9.24E-12,  avg # of iterations =  2.0

     negative rho (up, down):  1.974E+00 0.000E+00

     total cpu time spent up to now is     6255.5 secs

     total energy              =   -7425.29621473 Ry
     Harris-Foulkes estimate   =   -7425.29621472 Ry
     estimated scf accuracy    <       0.00000007 Ry

     iteration # 25     ecut=    50.00 Ry     beta=0.70
     Davidson diagonalization with overlap
     ethr =  8.21E-12,  avg # of iterations =  2.0

     negative rho (up, down):  1.974E+00 0.000E+00

     total cpu time spent up to now is     6451.4 secs

     total energy              =   -7425.29621474 Ry
     Harris-Foulkes estimate   =   -7425.29621474 Ry
     estimated scf accuracy    <       0.00000003 Ry

     iteration # 26     ecut=    50.00 Ry     beta=0.70
     Davidson diagonalization with overlap
     ethr =  3.64E-12,  avg # of iterations =  2.0

     negative rho (up, down):  1.974E+00 0.000E+00

     total cpu time spent up to now is     6640.6 secs

     End of self-consistent calculation

          k = 0.2500 0.2500 0.0833 (167653 PWs)   bands (ev):

   -19.8486  -7.6481  -6.7139  -6.1858  -6.1846  -5.7556  -5.3484  -5.2539
    -5.2529  -5.0573  -5.0571  -4.9423  -4.9406  -4.8606  -4.8391  -4.7651
    -4.6796  -4.6765  -4.6388  -4.6372  -4.4769  -4.4604  -4.4589  -4.4576
    -4.4515  -4.3975  -4.3956  -4.3843  -4.3842  -4.3466  -4.3413  -4.3350
    -4.2943  -4.2919  -4.2583  -4.2571  -4.2102  -4.2059  -4.2003  -4.1930
    -4.1878  -4.1789  -4.1745  -4.1465  -4.1240  -4.1147  -4.1122  -4.1085
    -4.1070  -4.0709  -4.0235  -4.0114  -4.0103  -4.0074  -4.0022  -3.9950
    -3.9937  -3.9930  -3.9826  -3.9292  -3.9240  -3.8788  -3.8726  -3.8644
    -3.8397  -3.8388  -3.8181  -3.8167  -3.8130  -3.8119  -3.8095  -3.7604
    -3.7590  -3.7477  -3.7467  -3.6428  -3.6399  -3.6365  -3.6330  -3.5976
    -3.5896  -3.5753  -3.5452  -3.5436  -3.5169  -3.5144  -3.4948  -3.4939
    -3.4816  -3.4803  -3.4261  -3.4251  -3.4077  -3.3919  -3.3807  -3.3791
    -3.3786  -3.3776  -3.3506  -3.3502  -3.3141  -3.3123  -3.2916  -3.2915
    -3.2588  -3.2585  -3.2402  -3.2127  -3.2123  -3.1753  -3.1747  -3.1391
    -3.1315  -3.1309  -3.1176  -3.1166  -3.1120  -3.1110  -3.0736  -3.0636
    -3.0226  -3.0223  -3.0143  -3.0052  -3.0041  -3.0013  -2.9788  -2.9785
    -2.9578  -2.9572  -2.9557  -2.9298  -2.9297  -2.9222  -2.9196  -2.9186
    -2.8835  -2.8790  -2.8440  -2.8429  -2.8425  -2.8398  -2.8396  -2.7601
    -2.7503  -2.7466  -2.7451  -2.7446  -2.7442  -2.7396  -2.7392  -2.7390
    -2.7380  -2.7290  -2.7212  -2.7049  -2.7021  -2.7015  -2.6984  -2.6864
    -2.6823  -2.6434  -2.6427  -2.6424  -2.6392  -2.6369  -2.6203  -2.6193
    -2.6113  -2.6112  -2.6084  -2.5498  -2.5494  -2.5437  -2.5436  -2.5401
    -2.5375  -2.5104  -2.4509  -2.4503  -2.4493  -2.4479  -2.4364  -2.4355
    -2.4286  -2.4190  -2.4186  -2.3826  -2.3811  -2.3737  -2.3730  -2.3723
    -2.3709  -2.3328  -2.3315  -2.3226  -2.3220  -2.3213  -2.3203  -2.2779
    -2.2602  -2.2579  -2.2036  -2.2029  -2.1862  -2.1849  -2.1794  -2.1773
    -2.1302  -2.1289  -2.1054  -2.0906  -2.0764  -2.0748  -2.0743  -2.0536
    -2.0518  -2.0422  -2.0246  -1.9898  -1.9842  -1.9735  -1.9712  -1.9709
    -1.9640  -1.9592  -1.9473  -1.9442  -1.9415  -1.9393  -1.9359  -1.9342
    -1.9330  -1.9231  -1.9216  -1.9115  -1.9033  -1.9017  -1.8993  -1.8928
    -1.8919  -1.8745  -1.8681  -1.8660  -1.8563  -1.8531  -1.8476  -1.8434
    -1.8104  -1.7783  -1.7759  -1.7418  -1.7250  -1.7244  -1.7138  -1.7103
    -1.6907  -1.6891  -1.6757  -1.6749  -1.6731  -1.6729  -1.6699  -1.6574
    -1.6380  -1.6372  -1.6359  -1.5918  -1.5901  -1.5514  -1.5506  -1.5043
    -1.5036  -1.4910  -1.4690  -1.4631  -1.4618  -1.4446  -1.4427  -1.4264
    -1.4255  -1.4215  -1.4211  -1.4197  -1.4190  -1.4155  -1.4139  -1.3957
    -1.3947  -1.3825  -1.3678  -1.3490  -1.3480  -1.3228  -1.3222  -1.3198
    -1.3195  -1.3161  -1.3105  -1.2910  -1.2900  -1.2766  -1.2718  -1.2609
    -1.2532  -1.2396  -1.2368  -1.2086  -1.2080  -1.2004  -1.1985  -1.1649
    -1.1638  -1.1562  -1.1544  -1.1474  -1.1448  -1.1256  -1.1251  -1.1137
    -1.1068  -1.1060  -1.0943  -1.0935  -1.0924  -1.0886  -1.0784  -1.0678
    -1.0666  -1.0595  -1.0590  -1.0474  -1.0426  -1.0390  -1.0361  -0.9966
    -0.9948  -0.9882  -0.9874  -0.9870  -0.9838  -0.9476  -0.9316  -0.9304
    -0.9298  -0.9284  -0.9241  -0.9214  -0.9199  -0.9052  -0.9034  -0.8692
    -0.8651  -0.8610  -0.8599  -0.8382  -0.8376  -0.8282  -0.7985  -0.7908
    -0.7637  -0.7626  -0.7354  -0.7350  -0.7317  -0.7307  -0.7306  -0.7262
    -0.7212  -0.7210  -0.7165  -0.7164  -0.6846  -0.6839  -0.6674  -0.6640
    -0.6609  -0.6608  -0.6590  -0.6501  -0.6401  -0.3632  -0.3550  -0.3012
    -0.2879  -0.2581  -0.0987  -0.0334  -0.0322   0.0021   0.2856   0.2893
     0.6128   0.6241   0.7151   0.7156   0.7549   0.7584   0.8977   0.9068
     1.0244   1.0261   1.1137   1.7107   1.7296   1.7303   1.7693   1.7738
     1.8100   1.8269   1.8974   1.9067   2.1060   2.1087   2.3403   2.4177
     2.4297   2.4382   2.8111   2.8264   2.8918   2.8941   2.8992   2.9017
     3.0510   3.0522   3.0798   3.1899   3.1999   3.4230   3.4328   3.5612
     3.5869   3.5938   3.8565   3.8636   3.9649   3.9896   3.9921   4.0087
     4.0432   4.1771   4.1804   4.4157   4.4163   4.4864   4.5031   4.6003
     4.6275   4.6327   4.6459   4.6729   4.8295   5.3989   5.4161   5.4407
     5.5497   5.5606   5.6059   5.6824   5.7373   5.7435   5.7491   5.8515
     5.8526   5.9076   5.9084   5.9498   5.9951   6.0382   6.0787   6.1622
     6.1883   6.2056   6.2190   6.2326   6.2445   6.2479   6.2519   6.2659

          k = 0.2500 0.2500-0.2500 (167588 PWs)   bands (ev):

   -19.8486  -7.6481  -6.7139  -6.1858  -6.1846  -5.7556  -5.3484  -5.2539
    -5.2529  -5.0573  -5.0571  -4.9423  -4.9406  -4.8606  -4.8391  -4.7651
    -4.6796  -4.6765  -4.6388  -4.6372  -4.4769  -4.4604  -4.4589  -4.4576
    -4.4515  -4.3975  -4.3957  -4.3843  -4.3842  -4.3466  -4.3413  -4.3350
    -4.2943  -4.2919  -4.2583  -4.2571  -4.2102  -4.2059  -4.2003  -4.1930
    -4.1878  -4.1789  -4.1745  -4.1465  -4.1240  -4.1147  -4.1122  -4.1085
    -4.1070  -4.0709  -4.0235  -4.0114  -4.0103  -4.0074  -4.0022  -3.9950
    -3.9937  -3.9930  -3.9826  -3.9292  -3.9240  -3.8788  -3.8726  -3.8644
    -3.8397  -3.8387  -3.8181  -3.8167  -3.8130  -3.8119  -3.8095  -3.7604
    -3.7590  -3.7477  -3.7467  -3.6428  -3.6399  -3.6365  -3.6330  -3.5976
    -3.5896  -3.5753  -3.5452  -3.5436  -3.5169  -3.5144  -3.4948  -3.4939
    -3.4816  -3.4803  -3.4261  -3.4251  -3.4077  -3.3919  -3.3807  -3.3791
    -3.3786  -3.3776  -3.3506  -3.3502  -3.3141  -3.3123  -3.2916  -3.2915
    -3.2588  -3.2585  -3.2402  -3.2127  -3.2123  -3.1753  -3.1747  -3.1391
    -3.1315  -3.1309  -3.1176  -3.1166  -3.1120  -3.1109  -3.0736  -3.0636
    -3.0226  -3.0223  -3.0143  -3.0052  -3.0041  -3.0013  -2.9788  -2.9785
    -2.9578  -2.9572  -2.9557  -2.9298  -2.9297  -2.9221  -2.9196  -2.9186
    -2.8835  -2.8790  -2.8440  -2.8429  -2.8425  -2.8398  -2.8396  -2.7601
    -2.7503  -2.7466  -2.7451  -2.7446  -2.7442  -2.7396  -2.7392  -2.7390
    -2.7380  -2.7290  -2.7213  -2.7049  -2.7021  -2.7015  -2.6984  -2.6864
    -2.6823  -2.6434  -2.6427  -2.6424  -2.6392  -2.6369  -2.6203  -2.6193
    -2.6113  -2.6112  -2.6084  -2.5498  -2.5494  -2.5437  -2.5436  -2.5401
    -2.5375  -2.5105  -2.4509  -2.4503  -2.4493  -2.4479  -2.4364  -2.4355
    -2.4286  -2.4190  -2.4186  -2.3826  -2.3811  -2.3737  -2.3730  -2.3723
    -2.3709  -2.3328  -2.3315  -2.3226  -2.3220  -2.3213  -2.3203  -2.2779
    -2.2602  -2.2579  -2.2036  -2.2029  -2.1862  -2.1849  -2.1794  -2.1773
    -2.1302  -2.1289  -2.1054  -2.0906  -2.0764  -2.0748  -2.0743  -2.0536
    -2.0518  -2.0422  -2.0246  -1.9898  -1.9842  -1.9735  -1.9712  -1.9709
    -1.9640  -1.9592  -1.9473  -1.9442  -1.9415  -1.9393  -1.9359  -1.9342
    -1.9330  -1.9231  -1.9216  -1.9115  -1.9033  -1.9017  -1.8993  -1.8928
    -1.8919  -1.8745  -1.8681  -1.8660  -1.8563  -1.8531  -1.8476  -1.8434
    -1.8104  -1.7783  -1.7759  -1.7418  -1.7250  -1.7244  -1.7138  -1.7103
    -1.6907  -1.6891  -1.6757  -1.6749  -1.6731  -1.6729  -1.6699  -1.6574
    -1.6380  -1.6372  -1.6359  -1.5918  -1.5901  -1.5514  -1.5506  -1.5043
    -1.5036  -1.4910  -1.4690  -1.4632  -1.4618  -1.4447  -1.4427  -1.4264
    -1.4255  -1.4215  -1.4211  -1.4197  -1.4190  -1.4155  -1.4139  -1.3957
    -1.3947  -1.3825  -1.3678  -1.3490  -1.3480  -1.3228  -1.3222  -1.3198
    -1.3195  -1.3161  -1.3105  -1.2910  -1.2900  -1.2766  -1.2718  -1.2609
    -1.2532  -1.2396  -1.2368  -1.2086  -1.2080  -1.2004  -1.1985  -1.1649
    -1.1638  -1.1562  -1.1544  -1.1474  -1.1448  -1.1256  -1.1251  -1.1137
    -1.1068  -1.1060  -1.0943  -1.0935  -1.0924  -1.0886  -1.0784  -1.0678
    -1.0666  -1.0595  -1.0590  -1.0474  -1.0426  -1.0390  -1.0361  -0.9966
    -0.9948  -0.9882  -0.9874  -0.9870  -0.9838  -0.9476  -0.9315  -0.9304
    -0.9298  -0.9284  -0.9241  -0.9214  -0.9199  -0.9052  -0.9034  -0.8692
    -0.8651  -0.8610  -0.8599  -0.8382  -0.8375  -0.8282  -0.7985  -0.7908
    -0.7636  -0.7626  -0.7354  -0.7350  -0.7317  -0.7307  -0.7306  -0.7262
    -0.7212  -0.7210  -0.7165  -0.7164  -0.6846  -0.6839  -0.6674  -0.6640
    -0.6609  -0.6608  -0.6590  -0.6501  -0.6401  -0.3632  -0.3550  -0.3012
    -0.2879  -0.2581  -0.0987  -0.0334  -0.0322   0.0021   0.2856   0.2893
     0.6128   0.6241   0.7151   0.7156   0.7549   0.7584   0.8977   0.9068
     1.0244   1.0261   1.1137   1.7107   1.7296   1.7303   1.7693   1.7738
     1.8100   1.8269   1.8974   1.9067   2.1060   2.1087   2.3403   2.4177
     2.4297   2.4382   2.8111   2.8264   2.8918   2.8941   2.8992   2.9017
     3.0510   3.0522   3.0798   3.1899   3.1999   3.4230   3.4328   3.5611
     3.5869   3.5938   3.8565   3.8636   3.9649   3.9897   3.9921   4.0088
     4.0433   4.1771   4.1804   4.4157   4.4163   4.4862   4.5031   4.5994
     4.6275   4.6326   4.6459   4.6729   4.8286   5.3959   5.4116   5.4192
     5.5497   5.5601   5.6471   5.7095   5.7373   5.7443   5.7481   5.8514
     5.8524   5.9076   5.9085   5.9500   5.9830   6.0561   6.0933   6.1686
     6.1975   6.2194   6.2300   6.2324   6.2439   6.2492   6.2514   6.2656

          k =-0.2500-0.2500 0.0833 (167653 PWs)   bands (ev):

   -19.8486  -7.6481  -6.7139  -6.1858  -6.1846  -5.7556  -5.3484  -5.2539
    -5.2529  -5.0573  -5.0571  -4.9423  -4.9406  -4.8606  -4.8391  -4.7651
    -4.6796  -4.6765  -4.6388  -4.6372  -4.4769  -4.4604  -4.4589  -4.4576
    -4.4515  -4.3975  -4.3956  -4.3843  -4.3842  -4.3466  -4.3413  -4.3350
    -4.2943  -4.2919  -4.2583  -4.2571  -4.2102  -4.2059  -4.2003  -4.1930
    -4.1878  -4.1789  -4.1745  -4.1465  -4.1240  -4.1147  -4.1122  -4.1085
    -4.1070  -4.0709  -4.0235  -4.0114  -4.0103  -4.0074  -4.0022  -3.9950
    -3.9937  -3.9930  -3.9826  -3.9292  -3.9240  -3.8788  -3.8726  -3.8644
    -3.8397  -3.8388  -3.8181  -3.8167  -3.8130  -3.8119  -3.8095  -3.7604
    -3.7590  -3.7477  -3.7467  -3.6428  -3.6399  -3.6365  -3.6330  -3.5976
    -3.5896  -3.5753  -3.5452  -3.5436  -3.5169  -3.5144  -3.4948  -3.4939
    -3.4816  -3.4803  -3.4261  -3.4251  -3.4077  -3.3919  -3.3807  -3.3791
    -3.3786  -3.3776  -3.3506  -3.3502  -3.3141  -3.3123  -3.2916  -3.2915
    -3.2588  -3.2585  -3.2402  -3.2127  -3.2123  -3.1753  -3.1747  -3.1391
    -3.1315  -3.1309  -3.1176  -3.1166  -3.1120  -3.1110  -3.0736  -3.0636
    -3.0226  -3.0223  -3.0143  -3.0052  -3.0041  -3.0013  -2.9788  -2.9785
    -2.9578  -2.9572  -2.9557  -2.9298  -2.9297  -2.9222  -2.9196  -2.9186
    -2.8835  -2.8790  -2.8440  -2.8429  -2.8425  -2.8398  -2.8396  -2.7601
    -2.7503  -2.7466  -2.7451  -2.7446  -2.7442  -2.7396  -2.7392  -2.7390
    -2.7380  -2.7290  -2.7212  -2.7049  -2.7021  -2.7015  -2.6984  -2.6864
    -2.6823  -2.6434  -2.6427  -2.6424  -2.6392  -2.6369  -2.6203  -2.6193
    -2.6113  -2.6112  -2.6084  -2.5498  -2.5494  -2.5437  -2.5436  -2.5401
    -2.5375  -2.5104  -2.4509  -2.4503  -2.4493  -2.4479  -2.4364  -2.4355
    -2.4286  -2.4190  -2.4186  -2.3826  -2.3811  -2.3737  -2.3730  -2.3723
    -2.3709  -2.3328  -2.3315  -2.3226  -2.3220  -2.3213  -2.3203  -2.2779
    -2.2602  -2.2579  -2.2036  -2.2029  -2.1862  -2.1849  -2.1794  -2.1773
    -2.1302  -2.1289  -2.1054  -2.0906  -2.0764  -2.0748  -2.0743  -2.0536
    -2.0518  -2.0422  -2.0246  -1.9898  -1.9842  -1.9735  -1.9712  -1.9709
    -1.9640  -1.9592  -1.9473  -1.9442  -1.9415  -1.9393  -1.9359  -1.9342
    -1.9330  -1.9231  -1.9216  -1.9115  -1.9033  -1.9017  -1.8993  -1.8928
    -1.8919  -1.8745  -1.8681  -1.8660  -1.8563  -1.8531  -1.8476  -1.8434
    -1.8104  -1.7783  -1.7759  -1.7418  -1.7250  -1.7244  -1.7138  -1.7103
    -1.6907  -1.6891  -1.6757  -1.6749  -1.6731  -1.6729  -1.6699  -1.6574
    -1.6380  -1.6372  -1.6359  -1.5918  -1.5901  -1.5514  -1.5506  -1.5043
    -1.5036  -1.4910  -1.4690  -1.4631  -1.4618  -1.4446  -1.4427  -1.4264
    -1.4255  -1.4215  -1.4211  -1.4197  -1.4190  -1.4155  -1.4139  -1.3957
    -1.3947  -1.3825  -1.3678  -1.3490  -1.3480  -1.3228  -1.3222  -1.3198
    -1.3195  -1.3161  -1.3105  -1.2910  -1.2900  -1.2766  -1.2718  -1.2609
    -1.2532  -1.2396  -1.2368  -1.2086  -1.2080  -1.2004  -1.1985  -1.1649
    -1.1638  -1.1562  -1.1544  -1.1474  -1.1448  -1.1256  -1.1251  -1.1137
    -1.1068  -1.1060  -1.0943  -1.0935  -1.0924  -1.0886  -1.0784  -1.0678
    -1.0666  -1.0595  -1.0590  -1.0474  -1.0426  -1.0390  -1.0361  -0.9966
    -0.9948  -0.9882  -0.9874  -0.9870  -0.9838  -0.9476  -0.9316  -0.9304
    -0.9298  -0.9284  -0.9241  -0.9214  -0.9199  -0.9052  -0.9034  -0.8692
    -0.8651  -0.8610  -0.8599  -0.8382  -0.8376  -0.8282  -0.7985  -0.7908
    -0.7637  -0.7626  -0.7354  -0.7350  -0.7317  -0.7307  -0.7306  -0.7262
    -0.7212  -0.7210  -0.7165  -0.7164  -0.6846  -0.6839  -0.6674  -0.6640
    -0.6609  -0.6608  -0.6590  -0.6501  -0.6401  -0.3632  -0.3550  -0.3012
    -0.2879  -0.2581  -0.0987  -0.0334  -0.0322   0.0021   0.2856   0.2893
     0.6128   0.6241   0.7151   0.7156   0.7549   0.7584   0.8977   0.9068
     1.0244   1.0261   1.1137   1.7107   1.7296   1.7303   1.7693   1.7738
     1.8100   1.8269   1.8974   1.9067   2.1060   2.1087   2.3403   2.4177
     2.4297   2.4382   2.8111   2.8264   2.8918   2.8941   2.8992   2.9017
     3.0510   3.0522   3.0798   3.1899   3.1999   3.4230   3.4328   3.5612
     3.5869   3.5938   3.8565   3.8636   3.9649   3.9896   3.9921   4.0087
     4.0432   4.1771   4.1804   4.4157   4.4163   4.4864   4.5031   4.6003
     4.6275   4.6327   4.6459   4.6729   4.8295   5.3989   5.4161   5.4405
     5.5498   5.5607   5.6066   5.6822   5.7373   5.7434   5.7491   5.8515
     5.8526   5.9076   5.9084   5.9498   5.9956   6.0365   6.0782   6.1627
     6.1881   6.2063   6.2192   6.2326   6.2445   6.2479   6.2519   6.2659

          k =-0.2500 0.2500-0.0833 (167653 PWs)   bands (ev):

   -19.8486  -7.6481  -6.7139  -6.1863  -6.1842  -5.7556  -5.3484  -5.2543
    -5.2525  -5.0574  -5.0571  -4.9416  -4.9412  -4.8606  -4.8392  -4.7651
    -4.6796  -4.6765  -4.6387  -4.6373  -4.4769  -4.4605  -4.4593  -4.4572
    -4.4515  -4.3975  -4.3957  -4.3846  -4.3839  -4.3466  -4.3408  -4.3355
    -4.2942  -4.2919  -4.2583  -4.2571  -4.2098  -4.2064  -4.2002  -4.1930
    -4.1878  -4.1789  -4.1746  -4.1465  -4.1241  -4.1146  -4.1122  -4.1086
    -4.1069  -4.0711  -4.0236  -4.0117  -4.0100  -4.0077  -4.0019  -3.9948
    -3.9937  -3.9931  -3.9824  -3.9297  -3.9233  -3.8792  -3.8724  -3.8645
    -3.8398  -3.8386  -3.8178  -3.8170  -3.8127  -3.8120  -3.8093  -3.7604
    -3.7590  -3.7480  -3.7464  -3.6432  -3.6396  -3.6369  -3.6328  -3.5977
    -3.5896  -3.5753  -3.5452  -3.5436  -3.5173  -3.5141  -3.4950  -3.4937
    -3.4820  -3.4800  -3.4263  -3.4249  -3.4076  -3.3918  -3.3807  -3.3792
    -3.3784  -3.3776  -3.3508  -3.3501  -3.3141  -3.3122  -3.2919  -3.2913
    -3.2588  -3.2585  -3.2402  -3.2125  -3.2124  -3.1755  -3.1745  -3.1392
    -3.1315  -3.1309  -3.1178  -3.1166  -3.1121  -3.1108  -3.0736  -3.0637
    -3.0226  -3.0224  -3.0143  -3.0049  -3.0046  -3.0011  -2.9788  -2.9784
    -2.9582  -2.9573  -2.9551  -2.9297  -2.9297  -2.9222  -2.9194  -2.9187
    -2.8835  -2.8789  -2.8443  -2.8430  -2.8424  -2.8397  -2.8397  -2.7602
    -2.7503  -2.7471  -2.7450  -2.7444  -2.7439  -2.7398  -2.7392  -2.7391
    -2.7377  -2.7290  -2.7212  -2.7050  -2.7021  -2.7015  -2.6983  -2.6864
    -2.6819  -2.6433  -2.6429  -2.6422  -2.6396  -2.6369  -2.6206  -2.6190
    -2.6114  -2.6110  -2.6084  -2.5497  -2.5494  -2.5438  -2.5437  -2.5393
    -2.5376  -2.5106  -2.4508  -2.4504  -2.4491  -2.4479  -2.4364  -2.4350
    -2.4286  -2.4189  -2.4184  -2.3831  -2.3807  -2.3741  -2.3733  -2.3721
    -2.3705  -2.3331  -2.3314  -2.3226  -2.3223  -2.3211  -2.3202  -2.2778
    -2.2603  -2.2603  -2.2037  -2.2028  -2.1872  -2.1841  -2.1791  -2.1781
    -2.1308  -2.1305  -2.1054  -2.0924  -2.0755  -2.0747  -2.0742  -2.0526
    -2.0519  -2.0422  -2.0246  -1.9876  -1.9848  -1.9791  -1.9715  -1.9710
    -1.9596  -1.9593  -1.9452  -1.9437  -1.9429  -1.9389  -1.9366  -1.9356
    -1.9340  -1.9241  -1.9209  -1.9109  -1.9037  -1.9017  -1.8956  -1.8922
    -1.8914  -1.8750  -1.8676  -1.8599  -1.8556  -1.8536  -1.8506  -1.8374
    -1.8101  -1.7789  -1.7752  -1.7418  -1.7255  -1.7234  -1.7141  -1.7128
    -1.6913  -1.6831  -1.6759  -1.6748  -1.6735  -1.6730  -1.6704  -1.6687
    -1.6384  -1.6373  -1.6354  -1.5923  -1.5893  -1.5516  -1.5508  -1.5045
    -1.5027  -1.4908  -1.4691  -1.4629  -1.4619  -1.4444  -1.4438  -1.4269
    -1.4244  -1.4220  -1.4208  -1.4202  -1.4175  -1.4160  -1.4138  -1.3957
    -1.3953  -1.3822  -1.3679  -1.3492  -1.3488  -1.3230  -1.3223  -1.3202
    -1.3190  -1.3152  -1.3092  -1.2923  -1.2892  -1.2781  -1.2713  -1.2597
    -1.2532  -1.2402  -1.2362  -1.2087  -1.2080  -1.2006  -1.1981  -1.1658
    -1.1623  -1.1565  -1.1540  -1.1480  -1.1446  -1.1259  -1.1246  -1.1138
    -1.1072  -1.1057  -1.0945  -1.0941  -1.0923  -1.0878  -1.0786  -1.0673
    -1.0666  -1.0598  -1.0589  -1.0470  -1.0440  -1.0390  -1.0362  -0.9971
    -0.9939  -0.9882  -0.9877  -0.9867  -0.9841  -0.9476  -0.9323  -0.9301
    -0.9296  -0.9281  -0.9262  -0.9208  -0.9200  -0.9053  -0.9030  -0.8698
    -0.8646  -0.8611  -0.8596  -0.8383  -0.8373  -0.8282  -0.7986  -0.7909
    -0.7640  -0.7623  -0.7354  -0.7350  -0.7317  -0.7307  -0.7306  -0.7261
    -0.7211  -0.7210  -0.7167  -0.7159  -0.6850  -0.6835  -0.6684  -0.6639
    -0.6612  -0.6604  -0.6601  -0.6480  -0.6402  -0.3632  -0.3551  -0.3033
    -0.2860  -0.2581  -0.0978  -0.0338  -0.0314   0.0023   0.2844   0.2903
     0.6110   0.6258   0.7146   0.7163   0.7540   0.7599   0.8952   0.9086
     1.0244   1.0259   1.1142   1.7114   1.7298   1.7301   1.7679   1.7738
     1.8056   1.8303   1.8957   1.9092   2.1051   2.1096   2.3399   2.4158
     2.4311   2.4386   2.8076   2.8276   2.8913   2.8948   2.8986   2.9026
     3.0514   3.0519   3.0772   3.1867   3.2074   3.4226   3.4372   3.5609
     3.5855   3.5948   3.8543   3.8665   3.9705   3.9917   3.9931   4.0130
     4.0321   4.1761   4.1817   4.4155   4.4169   4.4952   4.5008   4.5617
     4.6266   4.6324   4.6418   4.6771   4.8602   5.3768   5.4266   5.4829
     5.5329   5.5697   5.5967   5.6389   5.7356   5.7468   5.7513   5.8494
     5.8540   5.9067   5.9101   5.9521   6.0057   6.0165   6.1156   6.1449
     6.1849   6.2198   6.2311   6.2339   6.2388   6.2440   6.2568   6.2616

          k = 0.2500-0.2500-0.0833 (167653 PWs)   bands (ev):

   -19.8486  -7.6481  -6.7139  -6.1863  -6.1842  -5.7556  -5.3484  -5.2543
    -5.2525  -5.0574  -5.0571  -4.9416  -4.9412  -4.8606  -4.8392  -4.7651
    -4.6796  -4.6765  -4.6387  -4.6373  -4.4769  -4.4605  -4.4593  -4.4572
    -4.4515  -4.3975  -4.3957  -4.3846  -4.3839  -4.3466  -4.3408  -4.3355
    -4.2942  -4.2919  -4.2583  -4.2571  -4.2098  -4.2064  -4.2002  -4.1930
    -4.1878  -4.1789  -4.1746  -4.1465  -4.1241  -4.1146  -4.1122  -4.1086
    -4.1069  -4.0711  -4.0236  -4.0117  -4.0100  -4.0077  -4.0019  -3.9948
    -3.9937  -3.9931  -3.9824  -3.9297  -3.9233  -3.8792  -3.8724  -3.8645
    -3.8398  -3.8386  -3.8178  -3.8170  -3.8127  -3.8120  -3.8093  -3.7604
    -3.7590  -3.7480  -3.7464  -3.6432  -3.6396  -3.6369  -3.6328  -3.5977
    -3.5896  -3.5753  -3.5452  -3.5436  -3.5173  -3.5141  -3.4950  -3.4937
    -3.4820  -3.4800  -3.4263  -3.4249  -3.4076  -3.3918  -3.3807  -3.3792
    -3.3784  -3.3776  -3.3508  -3.3501  -3.3141  -3.3122  -3.2919  -3.2913
    -3.2588  -3.2585  -3.2402  -3.2125  -3.2124  -3.1755  -3.1745  -3.1392
    -3.1315  -3.1309  -3.1178  -3.1166  -3.1121  -3.1108  -3.0736  -3.0637
    -3.0226  -3.0224  -3.0143  -3.0049  -3.0046  -3.0011  -2.9788  -2.9784
    -2.9582  -2.9573  -2.9551  -2.9297  -2.9297  -2.9222  -2.9194  -2.9187
    -2.8835  -2.8789  -2.8443  -2.8430  -2.8424  -2.8397  -2.8397  -2.7602
    -2.7503  -2.7471  -2.7450  -2.7444  -2.7439  -2.7398  -2.7392  -2.7391
    -2.7377  -2.7290  -2.7212  -2.7050  -2.7021  -2.7015  -2.6983  -2.6864
    -2.6819  -2.6433  -2.6429  -2.6422  -2.6396  -2.6369  -2.6206  -2.6190
    -2.6114  -2.6110  -2.6084  -2.5497  -2.5494  -2.5438  -2.5437  -2.5393
    -2.5376  -2.5106  -2.4508  -2.4504  -2.4491  -2.4479  -2.4364  -2.4350
    -2.4286  -2.4189  -2.4184  -2.3831  -2.3807  -2.3741  -2.3733  -2.3721
    -2.3705  -2.3331  -2.3314  -2.3226  -2.3223  -2.3211  -2.3202  -2.2778
    -2.2603  -2.2603  -2.2037  -2.2028  -2.1872  -2.1841  -2.1791  -2.1781
    -2.1308  -2.1305  -2.1054  -2.0924  -2.0755  -2.0747  -2.0742  -2.0526
    -2.0519  -2.0422  -2.0246  -1.9876  -1.9848  -1.9791  -1.9715  -1.9710
    -1.9596  -1.9593  -1.9452  -1.9437  -1.9429  -1.9389  -1.9366  -1.9356
    -1.9340  -1.9241  -1.9209  -1.9109  -1.9037  -1.9017  -1.8956  -1.8922
    -1.8914  -1.8750  -1.8676  -1.8599  -1.8556  -1.8536  -1.8506  -1.8374
    -1.8101  -1.7789  -1.7752  -1.7418  -1.7255  -1.7234  -1.7141  -1.7128
    -1.6913  -1.6831  -1.6759  -1.6748  -1.6735  -1.6730  -1.6704  -1.6687
    -1.6384  -1.6373  -1.6354  -1.5923  -1.5893  -1.5516  -1.5508  -1.5045
    -1.5027  -1.4908  -1.4691  -1.4629  -1.4619  -1.4444  -1.4438  -1.4269
    -1.4244  -1.4220  -1.4208  -1.4202  -1.4175  -1.4160  -1.4138  -1.3957
    -1.3953  -1.3822  -1.3679  -1.3492  -1.3488  -1.3230  -1.3223  -1.3202
    -1.3190  -1.3152  -1.3092  -1.2923  -1.2892  -1.2781  -1.2713  -1.2597
    -1.2532  -1.2402  -1.2362  -1.2087  -1.2080  -1.2006  -1.1981  -1.1658
    -1.1623  -1.1565  -1.1540  -1.1480  -1.1446  -1.1259  -1.1246  -1.1138
    -1.1072  -1.1057  -1.0945  -1.0941  -1.0923  -1.0878  -1.0786  -1.0673
    -1.0666  -1.0598  -1.0589  -1.0470  -1.0440  -1.0390  -1.0362  -0.9971
    -0.9939  -0.9882  -0.9877  -0.9867  -0.9841  -0.9476  -0.9323  -0.9301
    -0.9296  -0.9281  -0.9262  -0.9208  -0.9200  -0.9053  -0.9030  -0.8698
    -0.8646  -0.8611  -0.8596  -0.8383  -0.8373  -0.8282  -0.7986  -0.7909
    -0.7640  -0.7623  -0.7354  -0.7350  -0.7317  -0.7307  -0.7306  -0.7261
    -0.7211  -0.7210  -0.7167  -0.7159  -0.6850  -0.6835  -0.6684  -0.6639
    -0.6612  -0.6604  -0.6601  -0.6480  -0.6402  -0.3632  -0.3551  -0.3033
    -0.2860  -0.2581  -0.0978  -0.0338  -0.0314   0.0023   0.2844   0.2903
     0.6110   0.6258   0.7146   0.7163   0.7540   0.7599   0.8952   0.9086
     1.0244   1.0259   1.1142   1.7114   1.7298   1.7301   1.7679   1.7738
     1.8056   1.8303   1.8957   1.9092   2.1051   2.1096   2.3399   2.4158
     2.4311   2.4386   2.8076   2.8276   2.8913   2.8948   2.8986   2.9026
     3.0514   3.0519   3.0772   3.1867   3.2074   3.4226   3.4372   3.5609
     3.5855   3.5948   3.8543   3.8665   3.9705   3.9917   3.9931   4.0131
     4.0321   4.1761   4.1817   4.4155   4.4169   4.4952   4.5008   4.5617
     4.6266   4.6324   4.6418   4.6771   4.8602   5.3768   5.4266   5.4832
     5.5327   5.5697   5.5962   5.6392   5.7356   5.7468   5.7513   5.8494
     5.8540   5.9067   5.9101   5.9521   6.0057   6.0167   6.1167   6.1438
     6.1850   6.2199   6.2307   6.2341   6.2387   6.2440   6.2567   6.2616

          k =-0.2500 0.2500 0.2500 (167588 PWs)   bands (ev):

   -19.8486  -7.6481  -6.7139  -6.1863  -6.1842  -5.7556  -5.3484  -5.2543
    -5.2525  -5.0574  -5.0570  -4.9416  -4.9412  -4.8606  -4.8392  -4.7651
    -4.6796  -4.6765  -4.6387  -4.6373  -4.4769  -4.4605  -4.4593  -4.4572
    -4.4515  -4.3975  -4.3957  -4.3846  -4.3839  -4.3466  -4.3408  -4.3355
    -4.2942  -4.2919  -4.2583  -4.2571  -4.2098  -4.2064  -4.2002  -4.1930
    -4.1878  -4.1789  -4.1746  -4.1465  -4.1241  -4.1146  -4.1122  -4.1086
    -4.1069  -4.0711  -4.0236  -4.0117  -4.0100  -4.0077  -4.0020  -3.9948
    -3.9937  -3.9931  -3.9824  -3.9297  -3.9233  -3.8792  -3.8724  -3.8645
    -3.8398  -3.8386  -3.8178  -3.8170  -3.8127  -3.8120  -3.8093  -3.7604
    -3.7590  -3.7480  -3.7464  -3.6432  -3.6396  -3.6369  -3.6328  -3.5977
    -3.5896  -3.5753  -3.5452  -3.5436  -3.5173  -3.5141  -3.4950  -3.4937
    -3.4820  -3.4800  -3.4263  -3.4249  -3.4076  -3.3918  -3.3807  -3.3792
    -3.3784  -3.3776  -3.3508  -3.3501  -3.3141  -3.3122  -3.2919  -3.2913
    -3.2588  -3.2585  -3.2402  -3.2125  -3.2124  -3.1755  -3.1745  -3.1392
    -3.1315  -3.1309  -3.1178  -3.1166  -3.1121  -3.1108  -3.0736  -3.0637
    -3.0226  -3.0224  -3.0143  -3.0049  -3.0046  -3.0011  -2.9788  -2.9784
    -2.9582  -2.9573  -2.9551  -2.9297  -2.9296  -2.9221  -2.9194  -2.9187
    -2.8835  -2.8789  -2.8443  -2.8430  -2.8424  -2.8397  -2.8397  -2.7602
    -2.7503  -2.7471  -2.7450  -2.7444  -2.7439  -2.7398  -2.7392  -2.7391
    -2.7377  -2.7290  -2.7212  -2.7050  -2.7021  -2.7015  -2.6983  -2.6863
    -2.6819  -2.6433  -2.6429  -2.6422  -2.6396  -2.6369  -2.6206  -2.6190
    -2.6114  -2.6110  -2.6084  -2.5497  -2.5494  -2.5438  -2.5437  -2.5393
    -2.5376  -2.5106  -2.4508  -2.4504  -2.4491  -2.4479  -2.4364  -2.4350
    -2.4285  -2.4189  -2.4184  -2.3831  -2.3807  -2.3741  -2.3733  -2.3721
    -2.3705  -2.3331  -2.3314  -2.3226  -2.3223  -2.3211  -2.3202  -2.2778
    -2.2603  -2.2603  -2.2037  -2.2028  -2.1872  -2.1841  -2.1791  -2.1781
    -2.1308  -2.1305  -2.1054  -2.0924  -2.0755  -2.0747  -2.0742  -2.0526
    -2.0519  -2.0422  -2.0246  -1.9876  -1.9848  -1.9791  -1.9715  -1.9709
    -1.9596  -1.9593  -1.9452  -1.9437  -1.9429  -1.9389  -1.9366  -1.9356
    -1.9340  -1.9240  -1.9209  -1.9109  -1.9037  -1.9017  -1.8956  -1.8922
    -1.8914  -1.8750  -1.8676  -1.8598  -1.8556  -1.8536  -1.8506  -1.8374
    -1.8101  -1.7789  -1.7752  -1.7418  -1.7255  -1.7234  -1.7141  -1.7128
    -1.6913  -1.6831  -1.6759  -1.6748  -1.6735  -1.6730  -1.6704  -1.6687
    -1.6384  -1.6373  -1.6354  -1.5923  -1.5893  -1.5516  -1.5509  -1.5045
    -1.5027  -1.4908  -1.4691  -1.4629  -1.4619  -1.4444  -1.4438  -1.4269
    -1.4244  -1.4220  -1.4208  -1.4202  -1.4175  -1.4160  -1.4138  -1.3957
    -1.3953  -1.3822  -1.3679  -1.3492  -1.3488  -1.3230  -1.3223  -1.3202
    -1.3190  -1.3152  -1.3092  -1.2923  -1.2892  -1.2781  -1.2713  -1.2597
    -1.2532  -1.2402  -1.2362  -1.2087  -1.2080  -1.2006  -1.1981  -1.1658
    -1.1622  -1.1565  -1.1540  -1.1480  -1.1446  -1.1259  -1.1246  -1.1138
    -1.1072  -1.1057  -1.0945  -1.0941  -1.0923  -1.0878  -1.0786  -1.0673
    -1.0666  -1.0598  -1.0589  -1.0470  -1.0439  -1.0390  -1.0362  -0.9971
    -0.9939  -0.9882  -0.9877  -0.9867  -0.9841  -0.9476  -0.9323  -0.9301
    -0.9296  -0.9281  -0.9262  -0.9208  -0.9200  -0.9053  -0.9030  -0.8698
    -0.8646  -0.8611  -0.8596  -0.8383  -0.8373  -0.8282  -0.7986  -0.7909
    -0.7640  -0.7623  -0.7354  -0.7350  -0.7317  -0.7307  -0.7306  -0.7261
    -0.7211  -0.7211  -0.7167  -0.7159  -0.6850  -0.6835  -0.6685  -0.6639
    -0.6612  -0.6604  -0.6601  -0.6480  -0.6402  -0.3632  -0.3551  -0.3033
    -0.2860  -0.2581  -0.0978  -0.0338  -0.0314   0.0023   0.2844   0.2903
     0.6110   0.6258   0.7146   0.7163   0.7540   0.7600   0.8952   0.9086
     1.0244   1.0259   1.1142   1.7114   1.7298   1.7301   1.7679   1.7738
     1.8056   1.8303   1.8957   1.9093   2.1051   2.1096   2.3399   2.4158
     2.4311   2.4386   2.8076   2.8276   2.8913   2.8948   2.8986   2.9026
     3.0514   3.0519   3.0773   3.1867   3.2074   3.4226   3.4372   3.5609
     3.5855   3.5948   3.8543   3.8665   3.9705   3.9917   3.9931   4.0132
     4.0322   4.1761   4.1817   4.4155   4.4169   4.4950   4.5008   4.5609
     4.6266   4.6324   4.6417   4.6770   4.8589   5.3762   5.4115   5.4702
     5.5298   5.5688   5.5899   5.7337   5.7359   5.7439   5.7494   5.8492
     5.8545   5.9067   5.9102   5.9521   5.9877   6.0529   6.0645   6.1967
     6.2064   6.2132   6.2309   6.2399   6.2446   6.2489   6.2567   6.2613

     the Fermi energy is     0.9753 ev

!    total energy              =   -7425.29621475 Ry
     Harris-Foulkes estimate   =   -7425.29621474 Ry
     estimated scf accuracy    <          9.0E-09 Ry

     The total energy is the sum of the following terms:

     one-electron contribution =  -48717.93398872 Ry
     hartree contribution      =   24912.85100795 Ry
     xc contribution           =   -3604.21143155 Ry
     ewald contribution        =   19984.00101479 Ry
     smearing contrib. (-TS)   =      -0.00281722 Ry

     convergence has been achieved in  26 iterations

     Writing output data file 4734501.save

     init_run     :    116.31s CPU    123.03s WALL (       1 calls)
     electrons    :   6133.61s CPU   6515.75s WALL (       1 calls)

     Called by init_run:
     wfcinit      :     83.08s CPU     88.99s WALL (       1 calls)
     potinit      :      6.20s CPU      6.54s WALL (       1 calls)

     Called by electrons:
     c_bands      :   4712.69s CPU   5020.38s WALL (      27 calls)
     sum_band     :    878.18s CPU    939.63s WALL (      27 calls)
     v_of_rho     :     90.75s CPU     98.98s WALL (      27 calls)
     newd         :    468.14s CPU    472.28s WALL (      27 calls)
     mix_rho      :      2.80s CPU      3.09s WALL (      27 calls)
     vdW_energy   :      7.56s CPU      8.19s WALL (      27 calls)
     vdW_ffts     :     43.19s CPU     47.25s WALL (      54 calls)
     vdW_v        :     13.31s CPU     14.00s WALL (      27 calls)

     Called by c_bands:
     init_us_2    :     17.16s CPU     17.50s WALL (     330 calls)
     cegterg      :   4597.31s CPU   4901.52s WALL (     162 calls)

     Called by *egterg:
     h_psi        :   1953.45s CPU   2225.24s WALL (     833 calls)
     s_psi        :    217.92s CPU    219.19s WALL (     833 calls)
     g_psi        :      5.03s CPU      5.04s WALL (     665 calls)
     cdiaghg      :   1154.38s CPU   1156.88s WALL (     821 calls)

     Called by h_psi:
     add_vuspsi   :    214.76s CPU    216.10s WALL (     833 calls)

     General routines
     calbec       :    502.26s CPU    503.83s WALL (     995 calls)
     fft          :    242.64s CPU    250.21s WALL (    1782 calls)
     ffts         :      1.04s CPU      1.25s WALL (      54 calls)
     fftw         :   1377.10s CPU   1647.53s WALL (  440118 calls)
     interpolate  :      2.82s CPU      3.43s WALL (      54 calls)
     davcio       :      0.00s CPU      0.25s WALL (       6 calls)

     Parallel routines
     fft_scatter  :   1117.20s CPU   1321.50s WALL (  441954 calls)

     PWSCF        :     1h44m CPU        1h51m WALL


   This run was terminated on:  20:45:53  24Jun2015            

=------------------------------------------------------------------------------=
   JOB DONE.
=------------------------------------------------------------------------------=
