Setting SGE environment for SCC

     Program PWSCF v.5.1.2 starts on 24Jun2015 at 21:10: 5 

     This program is part of the open-source Quantum ESPRESSO suite
     for quantum simulation of materials; please cite
         "P. Giannozzi et al., J. Phys.:Condens. Matter 21 395502 (2009);
          URL http://www.quantum-espresso.org", 
     in publications or presentations arising from this work. More details at
     http://www.quantum-espresso.org/quote

     Parallel version (MPI), running on    32 processors
     R & G space division:  proc/nbgrp/npool/nimage =      32
     Reading input from top.O1.Au62.d.3.0.phi.0.psi.180.in
Warning: card &IONS ignored
Warning: card / ignored
Warning: card &CELL ignored
Warning: card / ignored

     Current dimensions of program PWSCF are:
     Max number of different atomic species (ntypx) = 10
     Max number of k-points (npk) =  40000
     Max angular momentum in pseudopotentials (lmaxx) =  3

     IMPORTANT: XC functional enforced from input :
     Exchange-correlation      = VDW-DF ( 1  4  4  0 1 0)
     Any further DFT definition will be discarded
     Please, verify this is what you really want


     Subspace diagonalization in iterative solution of the eigenvalue problem:
     a serial algorithm will be used


     Parallelization info
     --------------------
     sticks:   dense  smooth     PW     G-vecs:    dense   smooth      PW
     Min         578     289     74               118518    41891    5486
     Max         579     290     75               118533    41932    5497
     Sum       18505    9265   2385              3792731  1341081  175711


     Title: 
     top.O1.Au62.d.3.0.phi.0.psi.180                                            


     bravais-lattice index     =            8
     lattice parameter (alat)  =      24.1233  a.u.
     unit-cell volume          =   28076.2361 (a.u.)^3
     number of atoms/cell      =           75
     number of atomic types    =            3
     number of electrons       =       800.00
     number of Kohn-Sham states=          480
     kinetic-energy cutoff     =      50.0000  Ry
     charge density cutoff     =     400.0000  Ry
     convergence threshold     =      1.0E-08
     mixing beta               =       0.7000
     number of iterations used =            8  plain     mixing
     Exchange-correlation      = VDW-DF ( 1  4  4  0 1 0)

     celldm(1)=  24.123277  celldm(2)=   1.000000  celldm(3)=   2.000000
     celldm(4)=   0.000000  celldm(5)=   0.000000  celldm(6)=   0.000000

     crystal axes: (cart. coord. in units of alat)
               a(1) = (   1.000000   0.000000   0.000000 )  
               a(2) = (   0.000000   1.000000   0.000000 )  
               a(3) = (   0.000000   0.000000   2.000000 )  

     reciprocal axes: (cart. coord. in units 2 pi/alat)
               b(1) = (  1.000000  0.000000  0.000000 )  
               b(2) = (  0.000000  1.000000  0.000000 )  
               b(3) = (  0.000000  0.000000  0.500000 )  


     PseudoPot. # 1 for Au read from file:
     /home/scc/andrejb/qe/pseudo/Au.pbe-nd-van.UPF
     MD5 check sum: 458681b50f36d87ef23c61b04bba420a
     Pseudo is Ultrasoft + core correction, Zval = 11.0
     Generated by new atomic code, or converted to UPF format
     Using radial grid of  985 points,  3 beta functions with: 
                l(1) =   1
                l(2) =   2
                l(3) =   2
     Q(r) pseudized with  8 coefficients,  rinner =    1.100   1.100   1.100
                                                       1.100   1.100

     PseudoPot. # 2 for H  read from file:
     /home/scc/andrejb/qe/pseudo/H.pbe-van_ak.UPF
     MD5 check sum: 403db7282739603aa925980fa9b8608d
     Pseudo is Ultrasoft, Zval =  1.0
     Generated by new atomic code, or converted to UPF format
     Using radial grid of  615 points,  1 beta functions with: 
                l(1) =   0
     Q(r) pseudized with  8 coefficients,  rinner =    0.800

     PseudoPot. # 3 for O  read from file:
     /home/scc/andrejb/qe/pseudo/O.pbe-van_ak.UPF
     MD5 check sum: 4b8c549914a63cae506c6ff22b5af4fe
     Pseudo is Ultrasoft, Zval =  6.0
     Generated by new atomic code, or converted to UPF format
     Using radial grid of  737 points,  4 beta functions with: 
                l(1) =   0
                l(2) =   0
                l(3) =   1
                l(4) =   1
     Q(r) pseudized with  8 coefficients,  rinner =    0.800   0.800   0.800


     vdW kernel table read from file vdW_kernel_table
     MD5 check sum: 48e77a2e26edf626eeb0eaa751ad5cac

     atomic species   valence    mass     pseudopotential
        Au            11.00   196.96657     Au( 1.00)
        H              1.00     1.01000     H ( 1.00)
        O              6.00    16.00000     O ( 1.00)

     No symmetry found



   Cartesian axes

     site n.     atom                  positions (alat units)
         1           O   tau(   1) = (   0.4998324   0.3332216   0.7343272  )
         2           H   tau(   2) = (   0.4527548   0.3723930   0.6888333  )
         3           H   tau(   3) = (   0.5454827   0.2952199   0.6864695  )
         4           Au  tau(   4) = (   0.0000000   0.0000000   0.0000000  )
         5           Au  tau(   5) = (   0.3332217   0.0000000   0.0000000  )
         6           Au  tau(   6) = (   0.6664435   0.0000000   0.0000000  )
         7           Au  tau(   7) = (   0.1666109   0.1666109   0.0000000  )
         8           Au  tau(   8) = (   0.4998326   0.1666109   0.0000000  )
         9           Au  tau(   9) = (   0.8330542   0.1666109   0.0000000  )
        10           Au  tau(  10) = (   0.0000000   0.3332217   0.0000000  )
        11           Au  tau(  11) = (   0.3332217   0.3332217   0.0000000  )
        12           Au  tau(  12) = (   0.6664435   0.3332217   0.0000000  )
        13           Au  tau(  13) = (   0.1666109   0.4998326   0.0000000  )
        14           Au  tau(  14) = (   0.4998326   0.4998326   0.0000000  )
        15           Au  tau(  15) = (   0.8330542   0.4998326   0.0000000  )
        16           Au  tau(  16) = (   0.0000000   0.6664435   0.0000000  )
        17           Au  tau(  17) = (   0.3332217   0.6664435   0.0000000  )
        18           Au  tau(  18) = (   0.6664435   0.6664435   0.0000000  )
        19           Au  tau(  19) = (   0.1666109   0.8330542   0.0000000  )
        20           Au  tau(  20) = (   0.4998326   0.8330542   0.0000000  )
        21           Au  tau(  21) = (   0.8330542   0.8330542   0.0000000  )
        22           Au  tau(  22) = (   0.1666109   0.0000000   0.1666109  )
        23           Au  tau(  23) = (   0.4998326   0.0000000   0.1666109  )
        24           Au  tau(  24) = (   0.8330542   0.0000000   0.1666109  )
        25           Au  tau(  25) = (   0.0000000   0.1666109   0.1666109  )
        26           Au  tau(  26) = (   0.3332217   0.1666109   0.1666109  )
        27           Au  tau(  27) = (   0.6664435   0.1666109   0.1666109  )
        28           Au  tau(  28) = (   0.1666109   0.3332217   0.1666109  )
        29           Au  tau(  29) = (   0.4998326   0.3332217   0.1666109  )
        30           Au  tau(  30) = (   0.8330542   0.3332217   0.1666109  )
        31           Au  tau(  31) = (   0.0000000   0.4998326   0.1666109  )
        32           Au  tau(  32) = (   0.3332217   0.4998326   0.1666109  )
        33           Au  tau(  33) = (   0.6664435   0.4998326   0.1666109  )
        34           Au  tau(  34) = (   0.1666109   0.6664435   0.1666109  )
        35           Au  tau(  35) = (   0.4998326   0.6664435   0.1666109  )
        36           Au  tau(  36) = (   0.8330542   0.6664435   0.1666109  )
        37           Au  tau(  37) = (   0.0000000   0.8330542   0.1666109  )
        38           Au  tau(  38) = (   0.3332217   0.8330542   0.1666109  )
        39           Au  tau(  39) = (   0.6664435   0.8330542   0.1666109  )
        40           Au  tau(  40) = (  -0.0000182  -0.0000182   0.3335478  )
        41           Au  tau(  41) = (   0.3332215  -0.0000181   0.3335472  )
        42           Au  tau(  42) = (   0.6664447  -0.0000183   0.3335481  )
        43           Au  tau(  43) = (  -0.0000181   0.3332215   0.3335472  )
        44           Au  tau(  44) = (   0.3332215   0.3332215   0.3335468  )
        45           Au  tau(  45) = (   0.6664445   0.3332215   0.3335478  )
        46           Au  tau(  46) = (  -0.0000183   0.6664447   0.3335481  )
        47           Au  tau(  47) = (   0.3332215   0.6664445   0.3335478  )
        48           Au  tau(  48) = (   0.6664446   0.6664446   0.3335486  )
        49           Au  tau(  49) = (   0.1666097   0.1666097   0.3335483  )
        50           Au  tau(  50) = (   0.4998320   0.1666098   0.3335477  )
        51           Au  tau(  51) = (   0.8330732   0.1666096   0.3335481  )
        52           Au  tau(  52) = (   0.1666098   0.4998320   0.3335477  )
        53           Au  tau(  53) = (   0.4998321   0.4998321   0.3335470  )
        54           Au  tau(  54) = (   0.8330730   0.4998322   0.3335474  )
        55           Au  tau(  55) = (   0.1666096   0.8330732   0.3335481  )
        56           Au  tau(  56) = (   0.4998322   0.8330730   0.3335474  )
        57           Au  tau(  57) = (   0.8330731   0.8330731   0.3335478  )
        58           Au  tau(  58) = (   0.1666104  -0.0000111   0.4993095  )
        59           Au  tau(  59) = (   0.4998323  -0.0000112   0.4993099  )
        60           Au  tau(  60) = (   0.8330661  -0.0000111   0.4993009  )
        61           Au  tau(  61) = (  -0.0000111   0.1666104   0.4993095  )
        62           Au  tau(  62) = (   0.3332214   0.1666106   0.4993185  )
        63           Au  tau(  63) = (   0.6664437   0.1666106   0.4993187  )
        64           Au  tau(  64) = (   0.1666106   0.3332214   0.4993185  )
        65           Au  tau(  65) = (   0.4998324   0.3332216   0.4993185  )
        66           Au  tau(  66) = (   0.8330659   0.3332215   0.4993103  )
        67           Au  tau(  67) = (  -0.0000112   0.4998323   0.4993099  )
        68           Au  tau(  68) = (   0.3332216   0.4998324   0.4993185  )
        69           Au  tau(  69) = (   0.6664436   0.4998325   0.4993187  )
        70           Au  tau(  70) = (   0.1666106   0.6664437   0.4993187  )
        71           Au  tau(  71) = (   0.4998325   0.6664436   0.4993187  )
        72           Au  tau(  72) = (   0.8330658   0.6664438   0.4993102  )
        73           Au  tau(  73) = (  -0.0000111   0.8330661   0.4993009  )
        74           Au  tau(  74) = (   0.3332215   0.8330659   0.4993103  )
        75           Au  tau(  75) = (   0.6664438   0.8330658   0.4993102  )

     number of k points=     6  Marzari-Vanderbilt smearing, width (Ry)=  0.0200
                       cart. coord. in units 2pi/alat
        k(    1) = (   0.2500000   0.2500000   0.0833333), wk =   0.3333333
        k(    2) = (   0.2500000   0.2500000  -0.2500000), wk =   0.3333333
        k(    3) = (  -0.2500000  -0.2500000   0.0833333), wk =   0.3333333
        k(    4) = (  -0.2500000   0.2500000  -0.0833333), wk =   0.3333333
        k(    5) = (   0.2500000  -0.2500000  -0.0833333), wk =   0.3333333
        k(    6) = (  -0.2500000   0.2500000   0.2500000), wk =   0.3333333

     Dense  grid:  3792731 G-vectors     FFT dimensions: ( 160, 160, 320)

     Smooth grid:  1341081 G-vectors     FFT dimensions: ( 120, 120, 225)

     Largest allocated arrays     est. size (Mb)     dimensions
        Kohn-Sham Wavefunctions        38.58 Mb     (    5267,  480)
        NL pseudopotentials            76.03 Mb     (    5267,  946)
        Each V/rho on FFT grid          3.91 Mb     (  256000)
        Each G-vector array             0.90 Mb     (  118520)
        G-vector shells                 0.08 Mb     (   10286)
     Largest temporary arrays     est. size (Mb)     dimensions
        Auxiliary wavefunctions       154.31 Mb     (    5267, 1920)
        Each subspace H/S matrix       56.25 Mb     (    1920, 1920)
        Each <psi_i|beta_j> matrix      6.93 Mb     (     946,  480)
        Arrays for rho mixing          31.25 Mb     (  256000,    8)

     Initial potential from superposition of free atoms
     Check: negative starting charge=   -1.945257

     starting charge  799.16392, renormalised to  800.00000

     negative rho (up, down):  1.947E+00 0.000E+00


     ************************************************************************
     *
     * You are using vdW-DF for exchange-correlation in this calculation.
     * Please cite the following three references that made this development
     * possible:
     *
     *   M. Dion, H. Rydberg, E. Schroder, D. C. Langreth, and
     *   B. I. Lundqvist, Phys. Rev. Lett. 92, 246401 (2004).
     *
     *   T. Thonhauser, V. R. Cooper, S. Li, A. Puzder, P. Hyldgaard, and
     *   D. C. Langreth, Phys. Rev. B 76, 125112 (2007).
     *
     *   G. Roman-Perez and J. M. Soler, Phys. Rev. Lett. 103, 096102 (2009).
     *
     *
     * If you are using vdW-DF2, please also cite:
     *
     *   K. Lee, E. D. Murray, L. Kong, B. I. Lundqvist, and
     *   D. C. Langreth, Phys. Rev. B 82, 081101(R) (2010).
     *
     *
     * If you are calculating the stress with vdW-DF, please also cite:
     *
     *   R. Sabatini, E. Kucukbenli, B. Kolb, T. Thonhauser, and
     *   S. de Gironcoli, J. Phys.: Condens. Matter 24, 424209 (2012).
     *
     ************************************************************************

     Carrying out vdW-DF run using the following parameters:

     Nqs =      20    Nr_points =    1024   r_max =   100.000
     q_mesh =
               0.00001000     0.04494208     0.09755937     0.15916263
               0.23128650     0.31572767     0.41458969     0.53033537
               0.66584808     0.82450364     1.01025438     1.22772762
               1.48234092     1.78043706     2.12944203     2.53805004
               3.01644009     3.57652955     4.23227104     5.00000000

     Gradients computed in reciprocal space

     ************************************************************************


     Starting wfc are  654 randomized atomic wfcs

     total cpu time spent up to now is      130.5 secs

     Self-consistent Calculation

     iteration #  1     ecut=    50.00 Ry     beta=0.70
     Davidson diagonalization with overlap
     ethr =  1.00E-02,  avg # of iterations =  3.0

     Threshold (ethr) on eigenvalues was too large:
     Diagonalizing with lowered threshold

     Davidson diagonalization with overlap
     ethr =  4.14E-04,  avg # of iterations =  2.0

     negative rho (up, down):  1.947E+00 0.000E+00

     total cpu time spent up to now is      509.5 secs

     total energy              =   -7423.06703489 Ry
     Harris-Foulkes estimate   =   -7426.04757231 Ry
     estimated scf accuracy    <       3.68731147 Ry

     iteration #  2     ecut=    50.00 Ry     beta=0.70
     Davidson diagonalization with overlap
     ethr =  4.61E-04,  avg # of iterations = 11.2

     negative rho (up, down):  1.943E+00 0.000E+00

     total cpu time spent up to now is     1172.3 secs

     total energy              =   -7415.50741514 Ry
     Harris-Foulkes estimate   =   -7432.46161527 Ry
     estimated scf accuracy    <      87.65930270 Ry

     iteration #  3     ecut=    50.00 Ry     beta=0.70
     Davidson diagonalization with overlap
     ethr =  4.61E-04,  avg # of iterations =  6.0

     negative rho (up, down):  1.953E+00 0.000E+00

     total cpu time spent up to now is     1582.3 secs

     total energy              =   -7424.00520876 Ry
     Harris-Foulkes estimate   =   -7425.90002165 Ry
     estimated scf accuracy    <       8.18829875 Ry

     iteration #  4     ecut=    50.00 Ry     beta=0.70
     Davidson diagonalization with overlap
     ethr =  4.61E-04,  avg # of iterations =  7.5

     negative rho (up, down):  1.955E+00 0.000E+00

     total cpu time spent up to now is     1845.5 secs

     total energy              =   -7424.71051664 Ry
     Harris-Foulkes estimate   =   -7425.76943226 Ry
     estimated scf accuracy    <       6.51671697 Ry

     iteration #  5     ecut=    50.00 Ry     beta=0.70
     Davidson diagonalization with overlap
     ethr =  4.61E-04,  avg # of iterations =  6.5

     negative rho (up, down):  1.963E+00 0.000E+00

     total cpu time spent up to now is     2091.9 secs

     total energy              =   -7425.10607275 Ry
     Harris-Foulkes estimate   =   -7425.55313007 Ry
     estimated scf accuracy    <       3.14802571 Ry

     iteration #  6     ecut=    50.00 Ry     beta=0.70
     Davidson diagonalization with overlap
     ethr =  3.94E-04,  avg # of iterations =  2.7

     negative rho (up, down):  1.967E+00 0.000E+00

     total cpu time spent up to now is     2288.2 secs

     total energy              =   -7425.27056200 Ry
     Harris-Foulkes estimate   =   -7425.32888709 Ry
     estimated scf accuracy    <       0.20386091 Ry

     iteration #  7     ecut=    50.00 Ry     beta=0.70
     Davidson diagonalization with overlap
     ethr =  2.55E-05,  avg # of iterations =  6.7

     negative rho (up, down):  1.970E+00 0.000E+00

     total cpu time spent up to now is     2548.5 secs

     total energy              =   -7425.27460219 Ry
     Harris-Foulkes estimate   =   -7425.32455276 Ry
     estimated scf accuracy    <       0.26754151 Ry

     iteration #  8     ecut=    50.00 Ry     beta=0.70
     Davidson diagonalization with overlap
     ethr =  2.55E-05,  avg # of iterations =  3.0

     negative rho (up, down):  1.971E+00 0.000E+00

     total cpu time spent up to now is     2754.2 secs

     total energy              =   -7425.28460753 Ry
     Harris-Foulkes estimate   =   -7425.30351697 Ry
     estimated scf accuracy    <       0.08006787 Ry

     iteration #  9     ecut=    50.00 Ry     beta=0.70
     Davidson diagonalization with overlap
     ethr =  1.00E-05,  avg # of iterations =  4.3

     negative rho (up, down):  1.972E+00 0.000E+00

     total cpu time spent up to now is     2972.3 secs

     total energy              =   -7425.28484238 Ry
     Harris-Foulkes estimate   =   -7425.29522133 Ry
     estimated scf accuracy    <       0.03669611 Ry

     iteration # 10     ecut=    50.00 Ry     beta=0.70
     Davidson diagonalization with overlap
     ethr =  4.59E-06,  avg # of iterations =  9.3

     negative rho (up, down):  1.973E+00 0.000E+00

     total cpu time spent up to now is     3244.6 secs

     total energy              =   -7425.28566548 Ry
     Harris-Foulkes estimate   =   -7425.28905967 Ry
     estimated scf accuracy    <       0.01135583 Ry

     iteration # 11     ecut=    50.00 Ry     beta=0.70
     Davidson diagonalization with overlap
     ethr =  1.42E-06,  avg # of iterations = 10.2

     negative rho (up, down):  1.974E+00 0.000E+00

     total cpu time spent up to now is     3528.1 secs

     total energy              =   -7425.28575221 Ry
     Harris-Foulkes estimate   =   -7425.28721501 Ry
     estimated scf accuracy    <       0.00520448 Ry

     iteration # 12     ecut=    50.00 Ry     beta=0.70
     Davidson diagonalization with overlap
     ethr =  6.51E-07,  avg # of iterations =  3.0

     negative rho (up, down):  1.974E+00 0.000E+00

     total cpu time spent up to now is     3724.0 secs

     total energy              =   -7425.28530782 Ry
     Harris-Foulkes estimate   =   -7425.28624863 Ry
     estimated scf accuracy    <       0.00153162 Ry

     iteration # 13     ecut=    50.00 Ry     beta=0.70
     Davidson diagonalization with overlap
     ethr =  1.91E-07,  avg # of iterations =  4.2

     negative rho (up, down):  1.974E+00 0.000E+00

     total cpu time spent up to now is     4013.6 secs

     total energy              =   -7425.28510784 Ry
     Harris-Foulkes estimate   =   -7425.28648759 Ry
     estimated scf accuracy    <       0.00566558 Ry

     iteration # 14     ecut=    50.00 Ry     beta=0.70
     Davidson diagonalization with overlap
     ethr =  1.91E-07,  avg # of iterations =  2.0

     negative rho (up, down):  1.974E+00 0.000E+00

     total cpu time spent up to now is     4235.9 secs

     total energy              =   -7425.28572103 Ry
     Harris-Foulkes estimate   =   -7425.28582186 Ry
     estimated scf accuracy    <       0.00032471 Ry

     iteration # 15     ecut=    50.00 Ry     beta=0.70
     Davidson diagonalization with overlap
     ethr =  4.06E-08,  avg # of iterations =  3.0

     negative rho (up, down):  1.974E+00 0.000E+00

     total cpu time spent up to now is     4438.2 secs

     total energy              =   -7425.28574821 Ry
     Harris-Foulkes estimate   =   -7425.28583754 Ry
     estimated scf accuracy    <       0.00049961 Ry

     iteration # 16     ecut=    50.00 Ry     beta=0.70
     Davidson diagonalization with overlap
     ethr =  4.06E-08,  avg # of iterations =  2.0

     negative rho (up, down):  1.974E+00 0.000E+00

     total cpu time spent up to now is     4622.2 secs

     total energy              =   -7425.28578145 Ry
     Harris-Foulkes estimate   =   -7425.28580384 Ry
     estimated scf accuracy    <       0.00009936 Ry

     iteration # 17     ecut=    50.00 Ry     beta=0.70
     Davidson diagonalization with overlap
     ethr =  1.24E-08,  avg # of iterations =  1.0

     negative rho (up, down):  1.974E+00 0.000E+00

     total cpu time spent up to now is     4797.9 secs

     total energy              =   -7425.28578752 Ry
     Harris-Foulkes estimate   =   -7425.28580141 Ry
     estimated scf accuracy    <       0.00009663 Ry

     iteration # 18     ecut=    50.00 Ry     beta=0.70
     Davidson diagonalization with overlap
     ethr =  1.21E-08,  avg # of iterations =  1.0

     negative rho (up, down):  1.974E+00 0.000E+00

     total cpu time spent up to now is     4975.0 secs

     total energy              =   -7425.28579374 Ry
     Harris-Foulkes estimate   =   -7425.28579713 Ry
     estimated scf accuracy    <       0.00001475 Ry

     iteration # 19     ecut=    50.00 Ry     beta=0.70
     Davidson diagonalization with overlap
     ethr =  1.84E-09,  avg # of iterations =  2.0

     negative rho (up, down):  1.974E+00 0.000E+00

     total cpu time spent up to now is     5159.0 secs

     total energy              =   -7425.28579431 Ry
     Harris-Foulkes estimate   =   -7425.28579726 Ry
     estimated scf accuracy    <       0.00001605 Ry

     iteration # 20     ecut=    50.00 Ry     beta=0.70
     Davidson diagonalization with overlap
     ethr =  1.84E-09,  avg # of iterations =  2.0

     negative rho (up, down):  1.974E+00 0.000E+00

     total cpu time spent up to now is     5345.7 secs

     total energy              =   -7425.28579594 Ry
     Harris-Foulkes estimate   =   -7425.28579606 Ry
     estimated scf accuracy    <       0.00000084 Ry

     iteration # 21     ecut=    50.00 Ry     beta=0.70
     Davidson diagonalization with overlap
     ethr =  1.05E-10,  avg # of iterations =  3.0

     negative rho (up, down):  1.974E+00 0.000E+00

     total cpu time spent up to now is     5554.2 secs

     total energy              =   -7425.28579604 Ry
     Harris-Foulkes estimate   =   -7425.28579612 Ry
     estimated scf accuracy    <       0.00000024 Ry

     iteration # 22     ecut=    50.00 Ry     beta=0.70
     Davidson diagonalization with overlap
     ethr =  3.06E-11,  avg # of iterations =  3.0

     negative rho (up, down):  1.974E+00 0.000E+00

     total cpu time spent up to now is     5776.2 secs

     total energy              =   -7425.28579607 Ry
     Harris-Foulkes estimate   =   -7425.28579617 Ry
     estimated scf accuracy    <       0.00000042 Ry

     iteration # 23     ecut=    50.00 Ry     beta=0.70
     Davidson diagonalization with overlap
     ethr =  3.06E-11,  avg # of iterations =  3.0

     negative rho (up, down):  1.974E+00 0.000E+00

     total cpu time spent up to now is     5976.6 secs

     total energy              =   -7425.28579611 Ry
     Harris-Foulkes estimate   =   -7425.28579613 Ry
     estimated scf accuracy    <       0.00000006 Ry

     iteration # 24     ecut=    50.00 Ry     beta=0.70
     Davidson diagonalization with overlap
     ethr =  7.74E-12,  avg # of iterations =  2.0

     negative rho (up, down):  1.974E+00 0.000E+00

     total cpu time spent up to now is     6191.8 secs

     total energy              =   -7425.28579613 Ry
     Harris-Foulkes estimate   =   -7425.28579614 Ry
     estimated scf accuracy    <       0.00000008 Ry

     iteration # 25     ecut=    50.00 Ry     beta=0.70
     Davidson diagonalization with overlap
     ethr =  7.74E-12,  avg # of iterations =  2.0

     negative rho (up, down):  1.974E+00 0.000E+00

     total cpu time spent up to now is     6380.3 secs

     total energy              =   -7425.28579614 Ry
     Harris-Foulkes estimate   =   -7425.28579614 Ry
     estimated scf accuracy    <       0.00000002 Ry

     iteration # 26     ecut=    50.00 Ry     beta=0.70
     Davidson diagonalization with overlap
     ethr =  2.35E-12,  avg # of iterations =  2.0

     negative rho (up, down):  1.974E+00 0.000E+00

     total cpu time spent up to now is     6580.5 secs

     total energy              =   -7425.28579614 Ry
     Harris-Foulkes estimate   =   -7425.28579614 Ry
     estimated scf accuracy    <       0.00000002 Ry

     iteration # 27     ecut=    50.00 Ry     beta=0.70
     Davidson diagonalization with overlap
     ethr =  2.06E-12,  avg # of iterations =  2.0

     negative rho (up, down):  1.974E+00 0.000E+00

     total cpu time spent up to now is     6770.4 secs

     total energy              =   -7425.28579614 Ry
     Harris-Foulkes estimate   =   -7425.28579615 Ry
     estimated scf accuracy    <       0.00000003 Ry

     iteration # 28     ecut=    50.00 Ry     beta=0.70
     Davidson diagonalization with overlap
     ethr =  2.06E-12,  avg # of iterations =  1.0

     negative rho (up, down):  1.974E+00 0.000E+00

     total cpu time spent up to now is     6944.9 secs

     End of self-consistent calculation

          k = 0.2500 0.2500 0.0833 (167653 PWs)   bands (ev):

   -19.3372  -7.1672  -6.9209  -6.3928  -6.3914  -5.9626  -5.5567  -5.4611
    -5.4596  -5.2640  -5.2640  -5.1520  -5.1458  -5.0673  -5.0463  -4.9721
    -4.8869  -4.8829  -4.8455  -4.8434  -4.6845  -4.6677  -4.6651  -4.6648
    -4.6575  -4.6036  -4.6024  -4.5915  -4.5903  -4.5532  -4.5463  -4.5406
    -4.4998  -4.4983  -4.4652  -4.4639  -4.4147  -4.4116  -4.4039  -4.4001
    -4.3942  -4.3824  -4.3810  -4.3436  -4.3225  -4.3222  -4.3146  -4.3144
    -4.2860  -4.2393  -4.2223  -4.2175  -4.2173  -4.2131  -4.2065  -4.2009
    -4.2001  -4.1992  -4.1387  -4.1343  -4.0944  -4.0847  -4.0729  -4.0484
    -4.0460  -4.0323  -4.0234  -4.0225  -4.0190  -4.0165  -3.9687  -3.9674
    -3.9547  -3.9539  -3.8649  -3.8487  -3.8463  -3.8420  -3.8074  -3.8014
    -3.7829  -3.7605  -3.7526  -3.7299  -3.7226  -3.7076  -3.7013  -3.6898
    -3.6876  -3.6482  -3.6323  -3.6219  -3.6186  -3.5905  -3.5889  -3.5868
    -3.5851  -3.5821  -3.5571  -3.5545  -3.5213  -3.5075  -3.5015  -3.4980
    -3.4674  -3.4637  -3.4485  -3.4206  -3.4185  -3.3825  -3.3817  -3.3456
    -3.3379  -3.3369  -3.3238  -3.3236  -3.3182  -3.3148  -3.2836  -3.2686
    -3.2302  -3.2282  -3.2207  -3.2114  -3.2103  -3.2048  -3.1860  -3.1858
    -3.1650  -3.1634  -3.1631  -3.1370  -3.1370  -3.1293  -3.1271  -3.1238
    -3.0895  -3.0869  -3.0526  -3.0501  -3.0484  -3.0476  -3.0459  -2.9668
    -2.9575  -2.9554  -2.9532  -2.9522  -2.9508  -2.9467  -2.9453  -2.9448
    -2.9445  -2.9357  -2.9277  -2.9127  -2.9090  -2.9070  -2.9009  -2.8930
    -2.8900  -2.8514  -2.8495  -2.8490  -2.8447  -2.8438  -2.8269  -2.8264
    -2.8189  -2.8184  -2.8149  -2.7578  -2.7569  -2.7512  -2.7507  -2.7471
    -2.7417  -2.7173  -2.6587  -2.6581  -2.6560  -2.6539  -2.6435  -2.6421
    -2.6343  -2.6273  -2.6255  -2.5922  -2.5893  -2.5830  -2.5814  -2.5788
    -2.5786  -2.5412  -2.5405  -2.5307  -2.5303  -2.5275  -2.5266  -2.4842
    -2.4679  -2.4638  -2.4120  -2.4100  -2.3955  -2.3930  -2.3853  -2.3834
    -2.3395  -2.3354  -2.3133  -2.3013  -2.2861  -2.2822  -2.2796  -2.2601
    -2.2586  -2.2497  -2.2292  -2.1985  -2.1939  -2.1819  -2.1759  -2.1752
    -2.1695  -2.1662  -2.1565  -2.1505  -2.1481  -2.1467  -2.1422  -2.1402
    -2.1386  -2.1306  -2.1288  -2.1119  -2.1097  -2.1077  -2.1028  -2.0996
    -2.0979  -2.0772  -2.0748  -2.0631  -2.0626  -2.0557  -2.0524  -2.0169
    -1.9850  -1.9839  -1.9493  -1.9338  -1.9333  -1.9260  -1.9204  -1.9019
    -1.8978  -1.8875  -1.8824  -1.8811  -1.8794  -1.8785  -1.8752  -1.8445
    -1.8437  -1.8425  -1.7992  -1.7990  -1.7613  -1.7571  -1.7133  -1.7113
    -1.6979  -1.6768  -1.6704  -1.6681  -1.6597  -1.6525  -1.6403  -1.6323
    -1.6317  -1.6286  -1.6264  -1.6251  -1.6233  -1.6232  -1.6042  -1.6015
    -1.5876  -1.5755  -1.5592  -1.5584  -1.5418  -1.5296  -1.5257  -1.5253
    -1.5245  -1.5177  -1.5005  -1.4945  -1.4827  -1.4820  -1.4711  -1.4613
    -1.4458  -1.4454  -1.4183  -1.4180  -1.4083  -1.4068  -1.3784  -1.3705
    -1.3633  -1.3620  -1.3570  -1.3553  -1.3366  -1.3315  -1.3260  -1.3225
    -1.3131  -1.3100  -1.3022  -1.2993  -1.2990  -1.2863  -1.2841  -1.2749
    -1.2664  -1.2661  -1.2617  -1.2501  -1.2476  -1.2438  -1.2343  -1.2039
    -1.1966  -1.1963  -1.1936  -1.1920  -1.1913  -1.1559  -1.1378  -1.1361
    -1.1350  -1.1341  -1.1333  -1.1269  -1.1232  -1.1115  -1.1110  -1.0760
    -1.0729  -1.0680  -1.0662  -1.0453  -1.0449  -1.0352  -1.0074  -0.9975
    -0.9719  -0.9695  -0.9429  -0.9418  -0.9394  -0.9390  -0.9357  -0.9313
    -0.9280  -0.9254  -0.9237  -0.9227  -0.8915  -0.8912  -0.8740  -0.8697
    -0.8669  -0.8650  -0.8647  -0.8585  -0.8472  -0.5752  -0.5589  -0.5041
    -0.4937  -0.4652  -0.3034  -0.2395  -0.2394  -0.2012   0.0778   0.0833
     0.4098   0.4171   0.5075   0.5090   0.5500   0.5510   0.6920   0.7006
     0.8163   0.8196   0.9133   1.5061   1.5219   1.5223   1.5554   1.5689
     1.6136   1.6236   1.6922   1.6969   1.8986   1.9006   2.1376   2.2154
     2.2162   2.2317   2.6130   2.6175   2.6832   2.6863   2.6927   2.6938
     2.8433   2.8445   2.9007   2.9890   2.9982   3.2208   3.2256   3.3529
     3.3801   3.3826   3.6532   3.6590   3.7606   3.7842   3.7854   3.8719
     3.8769   3.9701   3.9727   4.2073   4.2091   4.2960   4.3039   4.4160
     4.4276   4.4416   4.4475   4.6156   5.2529   5.2588   5.3520   5.3536
     5.3690   5.5335   5.5368   5.6003   5.6409   5.6534   5.6723   5.7018
     5.7024   5.7190   5.7211   5.7499   5.9927   6.0188   6.0335   6.0449
     6.0455   6.0489   6.0503   6.0566   6.1393   6.1426   6.1762   6.1823

          k = 0.2500 0.2500-0.2500 (167588 PWs)   bands (ev):

   -19.3372  -7.1672  -6.9209  -6.3928  -6.3914  -5.9626  -5.5567  -5.4611
    -5.4596  -5.2640  -5.2639  -5.1520  -5.1458  -5.0673  -5.0463  -4.9721
    -4.8869  -4.8829  -4.8455  -4.8434  -4.6845  -4.6677  -4.6651  -4.6648
    -4.6575  -4.6036  -4.6024  -4.5915  -4.5903  -4.5532  -4.5463  -4.5406
    -4.4998  -4.4983  -4.4652  -4.4639  -4.4147  -4.4116  -4.4039  -4.4001
    -4.3942  -4.3824  -4.3810  -4.3436  -4.3225  -4.3222  -4.3146  -4.3144
    -4.2860  -4.2393  -4.2223  -4.2175  -4.2173  -4.2131  -4.2065  -4.2009
    -4.2001  -4.1992  -4.1387  -4.1343  -4.0944  -4.0847  -4.0729  -4.0484
    -4.0459  -4.0323  -4.0234  -4.0225  -4.0190  -4.0165  -3.9687  -3.9674
    -3.9547  -3.9539  -3.8649  -3.8487  -3.8463  -3.8420  -3.8074  -3.8014
    -3.7829  -3.7605  -3.7526  -3.7299  -3.7226  -3.7076  -3.7013  -3.6897
    -3.6876  -3.6482  -3.6323  -3.6218  -3.6186  -3.5905  -3.5889  -3.5868
    -3.5851  -3.5821  -3.5571  -3.5545  -3.5213  -3.5075  -3.5015  -3.4980
    -3.4674  -3.4637  -3.4485  -3.4206  -3.4185  -3.3825  -3.3817  -3.3456
    -3.3379  -3.3369  -3.3238  -3.3236  -3.3182  -3.3148  -3.2836  -3.2686
    -3.2302  -3.2282  -3.2207  -3.2114  -3.2102  -3.2048  -3.1860  -3.1858
    -3.1650  -3.1634  -3.1631  -3.1370  -3.1370  -3.1292  -3.1271  -3.1237
    -3.0895  -3.0869  -3.0526  -3.0501  -3.0484  -3.0476  -3.0459  -2.9668
    -2.9575  -2.9554  -2.9532  -2.9522  -2.9508  -2.9467  -2.9453  -2.9448
    -2.9445  -2.9357  -2.9278  -2.9127  -2.9090  -2.9070  -2.9009  -2.8930
    -2.8900  -2.8514  -2.8495  -2.8490  -2.8447  -2.8438  -2.8269  -2.8264
    -2.8189  -2.8184  -2.8149  -2.7578  -2.7569  -2.7512  -2.7507  -2.7471
    -2.7416  -2.7173  -2.6587  -2.6581  -2.6560  -2.6539  -2.6435  -2.6421
    -2.6343  -2.6273  -2.6255  -2.5922  -2.5893  -2.5830  -2.5814  -2.5787
    -2.5786  -2.5412  -2.5405  -2.5307  -2.5303  -2.5275  -2.5266  -2.4842
    -2.4679  -2.4638  -2.4119  -2.4099  -2.3955  -2.3930  -2.3853  -2.3834
    -2.3395  -2.3354  -2.3133  -2.3013  -2.2861  -2.2822  -2.2796  -2.2601
    -2.2586  -2.2497  -2.2292  -2.1985  -2.1939  -2.1819  -2.1759  -2.1752
    -2.1695  -2.1662  -2.1565  -2.1505  -2.1481  -2.1467  -2.1422  -2.1402
    -2.1386  -2.1306  -2.1288  -2.1119  -2.1097  -2.1077  -2.1028  -2.0996
    -2.0979  -2.0772  -2.0748  -2.0631  -2.0626  -2.0557  -2.0524  -2.0169
    -1.9850  -1.9839  -1.9493  -1.9338  -1.9333  -1.9260  -1.9204  -1.9019
    -1.8978  -1.8875  -1.8824  -1.8811  -1.8794  -1.8785  -1.8752  -1.8445
    -1.8437  -1.8425  -1.7992  -1.7990  -1.7613  -1.7571  -1.7133  -1.7113
    -1.6979  -1.6768  -1.6704  -1.6681  -1.6597  -1.6525  -1.6403  -1.6323
    -1.6317  -1.6286  -1.6264  -1.6251  -1.6233  -1.6232  -1.6042  -1.6015
    -1.5876  -1.5755  -1.5592  -1.5584  -1.5418  -1.5296  -1.5257  -1.5253
    -1.5245  -1.5177  -1.5005  -1.4945  -1.4827  -1.4820  -1.4711  -1.4613
    -1.4458  -1.4453  -1.4183  -1.4180  -1.4083  -1.4068  -1.3784  -1.3705
    -1.3633  -1.3620  -1.3570  -1.3553  -1.3366  -1.3315  -1.3260  -1.3225
    -1.3131  -1.3100  -1.3022  -1.2993  -1.2990  -1.2863  -1.2841  -1.2749
    -1.2664  -1.2661  -1.2617  -1.2501  -1.2476  -1.2438  -1.2343  -1.2039
    -1.1966  -1.1963  -1.1936  -1.1921  -1.1913  -1.1559  -1.1378  -1.1360
    -1.1350  -1.1341  -1.1333  -1.1269  -1.1232  -1.1115  -1.1110  -1.0760
    -1.0729  -1.0680  -1.0662  -1.0453  -1.0449  -1.0352  -1.0074  -0.9975
    -0.9719  -0.9695  -0.9429  -0.9418  -0.9394  -0.9390  -0.9357  -0.9313
    -0.9280  -0.9254  -0.9237  -0.9227  -0.8915  -0.8912  -0.8740  -0.8697
    -0.8669  -0.8650  -0.8647  -0.8585  -0.8472  -0.5752  -0.5589  -0.5041
    -0.4937  -0.4652  -0.3034  -0.2395  -0.2394  -0.2012   0.0778   0.0833
     0.4098   0.4171   0.5075   0.5090   0.5500   0.5510   0.6920   0.7006
     0.8163   0.8196   0.9133   1.5061   1.5219   1.5223   1.5554   1.5689
     1.6136   1.6236   1.6922   1.6969   1.8986   1.9006   2.1376   2.2154
     2.2162   2.2317   2.6130   2.6175   2.6832   2.6863   2.6927   2.6938
     2.8433   2.8445   2.9007   2.9890   2.9982   3.2208   3.2256   3.3529
     3.3801   3.3826   3.6532   3.6590   3.7606   3.7842   3.7854   3.8719
     3.8769   3.9702   3.9727   4.2073   4.2091   4.2960   4.3039   4.4160
     4.4276   4.4416   4.4475   4.6157   5.2523   5.2589   5.3339   5.3535
     5.3650   5.5335   5.5368   5.6001   5.6409   5.6536   5.6939   5.7018
     5.7024   5.7038   5.7497   5.7738   5.9927   6.0186   6.0338   6.0449
     6.0455   6.0489   6.0504   6.0566   6.1391   6.1427   6.1590   6.2869

          k =-0.2500-0.2500 0.0833 (167653 PWs)   bands (ev):

   -19.3372  -7.1672  -6.9209  -6.3928  -6.3914  -5.9626  -5.5567  -5.4611
    -5.4596  -5.2640  -5.2640  -5.1520  -5.1458  -5.0673  -5.0463  -4.9721
    -4.8869  -4.8829  -4.8455  -4.8434  -4.6845  -4.6677  -4.6651  -4.6648
    -4.6575  -4.6036  -4.6024  -4.5915  -4.5903  -4.5532  -4.5463  -4.5406
    -4.4998  -4.4983  -4.4652  -4.4639  -4.4147  -4.4116  -4.4039  -4.4001
    -4.3942  -4.3824  -4.3810  -4.3436  -4.3225  -4.3222  -4.3146  -4.3144
    -4.2860  -4.2393  -4.2223  -4.2175  -4.2173  -4.2131  -4.2065  -4.2009
    -4.2001  -4.1992  -4.1387  -4.1343  -4.0944  -4.0847  -4.0729  -4.0484
    -4.0460  -4.0323  -4.0234  -4.0225  -4.0190  -4.0165  -3.9687  -3.9674
    -3.9547  -3.9539  -3.8649  -3.8487  -3.8463  -3.8420  -3.8074  -3.8014
    -3.7829  -3.7605  -3.7526  -3.7299  -3.7226  -3.7076  -3.7013  -3.6898
    -3.6876  -3.6482  -3.6323  -3.6219  -3.6186  -3.5905  -3.5889  -3.5868
    -3.5851  -3.5821  -3.5571  -3.5545  -3.5213  -3.5075  -3.5015  -3.4980
    -3.4674  -3.4637  -3.4485  -3.4206  -3.4185  -3.3825  -3.3817  -3.3456
    -3.3379  -3.3369  -3.3238  -3.3236  -3.3182  -3.3148  -3.2836  -3.2686
    -3.2302  -3.2282  -3.2207  -3.2114  -3.2103  -3.2048  -3.1860  -3.1858
    -3.1650  -3.1634  -3.1631  -3.1370  -3.1370  -3.1293  -3.1271  -3.1238
    -3.0895  -3.0869  -3.0526  -3.0501  -3.0484  -3.0476  -3.0459  -2.9668
    -2.9575  -2.9554  -2.9532  -2.9522  -2.9508  -2.9467  -2.9453  -2.9448
    -2.9445  -2.9357  -2.9277  -2.9127  -2.9090  -2.9070  -2.9009  -2.8930
    -2.8900  -2.8514  -2.8495  -2.8490  -2.8447  -2.8438  -2.8269  -2.8264
    -2.8189  -2.8184  -2.8149  -2.7578  -2.7569  -2.7512  -2.7507  -2.7471
    -2.7417  -2.7173  -2.6587  -2.6581  -2.6560  -2.6539  -2.6435  -2.6421
    -2.6343  -2.6273  -2.6255  -2.5922  -2.5893  -2.5830  -2.5814  -2.5788
    -2.5786  -2.5412  -2.5405  -2.5307  -2.5303  -2.5275  -2.5266  -2.4842
    -2.4679  -2.4638  -2.4120  -2.4100  -2.3955  -2.3930  -2.3853  -2.3834
    -2.3395  -2.3354  -2.3133  -2.3013  -2.2861  -2.2822  -2.2796  -2.2601
    -2.2586  -2.2497  -2.2292  -2.1985  -2.1939  -2.1819  -2.1759  -2.1752
    -2.1695  -2.1662  -2.1565  -2.1505  -2.1481  -2.1467  -2.1422  -2.1402
    -2.1386  -2.1306  -2.1288  -2.1119  -2.1097  -2.1077  -2.1028  -2.0996
    -2.0979  -2.0772  -2.0748  -2.0631  -2.0626  -2.0557  -2.0524  -2.0169
    -1.9850  -1.9839  -1.9493  -1.9338  -1.9333  -1.9260  -1.9204  -1.9019
    -1.8978  -1.8875  -1.8824  -1.8811  -1.8794  -1.8785  -1.8752  -1.8445
    -1.8437  -1.8425  -1.7992  -1.7990  -1.7613  -1.7571  -1.7133  -1.7113
    -1.6979  -1.6768  -1.6704  -1.6681  -1.6597  -1.6525  -1.6403  -1.6323
    -1.6317  -1.6286  -1.6264  -1.6251  -1.6233  -1.6232  -1.6042  -1.6015
    -1.5876  -1.5755  -1.5592  -1.5584  -1.5418  -1.5296  -1.5257  -1.5253
    -1.5245  -1.5177  -1.5005  -1.4945  -1.4827  -1.4820  -1.4711  -1.4613
    -1.4458  -1.4454  -1.4183  -1.4180  -1.4083  -1.4068  -1.3784  -1.3705
    -1.3633  -1.3620  -1.3570  -1.3553  -1.3366  -1.3315  -1.3260  -1.3225
    -1.3131  -1.3100  -1.3022  -1.2993  -1.2990  -1.2863  -1.2841  -1.2749
    -1.2664  -1.2661  -1.2617  -1.2501  -1.2476  -1.2438  -1.2343  -1.2039
    -1.1966  -1.1963  -1.1936  -1.1920  -1.1913  -1.1559  -1.1378  -1.1361
    -1.1350  -1.1341  -1.1333  -1.1269  -1.1232  -1.1115  -1.1110  -1.0760
    -1.0729  -1.0680  -1.0662  -1.0453  -1.0449  -1.0352  -1.0074  -0.9975
    -0.9719  -0.9695  -0.9429  -0.9418  -0.9394  -0.9390  -0.9357  -0.9313
    -0.9280  -0.9254  -0.9237  -0.9227  -0.8915  -0.8912  -0.8740  -0.8697
    -0.8669  -0.8650  -0.8647  -0.8585  -0.8472  -0.5752  -0.5589  -0.5041
    -0.4937  -0.4652  -0.3034  -0.2395  -0.2394  -0.2012   0.0778   0.0833
     0.4098   0.4171   0.5075   0.5090   0.5500   0.5510   0.6920   0.7006
     0.8163   0.8196   0.9133   1.5061   1.5219   1.5223   1.5554   1.5689
     1.6136   1.6236   1.6922   1.6969   1.8986   1.9006   2.1376   2.2154
     2.2162   2.2317   2.6130   2.6175   2.6832   2.6863   2.6927   2.6938
     2.8433   2.8445   2.9007   2.9890   2.9982   3.2208   3.2256   3.3529
     3.3801   3.3826   3.6532   3.6590   3.7606   3.7842   3.7854   3.8719
     3.8769   3.9701   3.9727   4.2073   4.2091   4.2960   4.3039   4.4160
     4.4276   4.4416   4.4475   4.6156   5.2529   5.2588   5.3520   5.3536
     5.3690   5.5335   5.5368   5.6003   5.6409   5.6534   5.6723   5.7018
     5.7024   5.7189   5.7212   5.7499   5.9927   6.0188   6.0335   6.0449
     6.0455   6.0489   6.0503   6.0566   6.1394   6.1425   6.1762   6.1823

          k =-0.2500 0.2500-0.0833 (167653 PWs)   bands (ev):

   -19.3372  -7.1673  -6.9208  -6.3941  -6.3903  -5.9624  -5.5565  -5.4621
    -5.4585  -5.2641  -5.2639  -5.1543  -5.1443  -5.0673  -5.0457  -4.9717
    -4.8868  -4.8834  -4.8467  -4.8431  -4.6841  -4.6678  -4.6660  -4.6639
    -4.6575  -4.6036  -4.6024  -4.5919  -4.5892  -4.5536  -4.5467  -4.5392
    -4.4999  -4.4981  -4.4653  -4.4638  -4.4172  -4.4104  -4.4031  -4.4003
    -4.3941  -4.3824  -4.3809  -4.3420  -4.3228  -4.3218  -4.3149  -4.3141
    -4.2843  -4.2380  -4.2285  -4.2182  -4.2165  -4.2123  -4.2066  -4.2018
    -4.2000  -4.1989  -4.1422  -4.1330  -4.0923  -4.0833  -4.0726  -4.0512
    -4.0458  -4.0347  -4.0230  -4.0229  -4.0189  -4.0164  -3.9683  -3.9675
    -3.9553  -3.9530  -3.8615  -3.8477  -3.8473  -3.8408  -3.8072  -3.8014
    -3.7831  -3.7616  -3.7527  -3.7293  -3.7215  -3.7082  -3.7009  -3.6902
    -3.6862  -3.6499  -3.6318  -3.6241  -3.6181  -3.5898  -3.5890  -3.5870
    -3.5846  -3.5836  -3.5571  -3.5542  -3.5214  -3.5056  -3.5022  -3.4973
    -3.4679  -3.4630  -3.4484  -3.4212  -3.4184  -3.3833  -3.3808  -3.3456
    -3.3379  -3.3368  -3.3241  -3.3233  -3.3180  -3.3151  -3.2836  -3.2686
    -3.2303  -3.2283  -3.2206  -3.2112  -3.2102  -3.2057  -3.1858  -3.1852
    -3.1655  -3.1642  -3.1619  -3.1371  -3.1368  -3.1293  -3.1276  -3.1232
    -3.0896  -3.0880  -3.0523  -3.0493  -3.0491  -3.0477  -3.0458  -2.9667
    -2.9582  -2.9569  -2.9536  -2.9511  -2.9503  -2.9460  -2.9457  -2.9452
    -2.9445  -2.9356  -2.9277  -2.9125  -2.9092  -2.9067  -2.9021  -2.8930
    -2.8900  -2.8514  -2.8496  -2.8493  -2.8447  -2.8434  -2.8275  -2.8256
    -2.8191  -2.8179  -2.8150  -2.7578  -2.7570  -2.7519  -2.7511  -2.7471
    -2.7415  -2.7171  -2.6588  -2.6583  -2.6556  -2.6539  -2.6438  -2.6420
    -2.6339  -2.6282  -2.6251  -2.5913  -2.5871  -2.5841  -2.5823  -2.5784
    -2.5772  -2.5402  -2.5394  -2.5308  -2.5296  -2.5286  -2.5260  -2.4839
    -2.4670  -2.4643  -2.4127  -2.4094  -2.3952  -2.3934  -2.3854  -2.3830
    -2.3405  -2.3339  -2.3129  -2.3027  -2.2863  -2.2821  -2.2796  -2.2607
    -2.2585  -2.2498  -2.2294  -2.2039  -2.1934  -2.1807  -2.1751  -2.1748
    -2.1708  -2.1652  -2.1608  -2.1510  -2.1494  -2.1458  -2.1420  -2.1387
    -2.1380  -2.1314  -2.1271  -2.1114  -2.1097  -2.1082  -2.1034  -2.1003
    -2.0971  -2.0779  -2.0733  -2.0630  -2.0629  -2.0550  -2.0530  -2.0169
    -1.9848  -1.9837  -1.9492  -1.9365  -1.9339  -1.9283  -1.9184  -1.8992
    -1.8985  -1.8911  -1.8832  -1.8814  -1.8802  -1.8785  -1.8740  -1.8440
    -1.8434  -1.8433  -1.7984  -1.7983  -1.7635  -1.7556  -1.7118  -1.7106
    -1.6973  -1.6773  -1.6700  -1.6684  -1.6579  -1.6536  -1.6380  -1.6325
    -1.6300  -1.6296  -1.6267  -1.6254  -1.6238  -1.6232  -1.6055  -1.6006
    -1.5886  -1.5761  -1.5606  -1.5583  -1.5342  -1.5303  -1.5265  -1.5246
    -1.5204  -1.5181  -1.5062  -1.4950  -1.4836  -1.4776  -1.4705  -1.4614
    -1.4467  -1.4451  -1.4200  -1.4147  -1.4108  -1.4048  -1.3791  -1.3736
    -1.3626  -1.3612  -1.3607  -1.3543  -1.3351  -1.3345  -1.3280  -1.3188
    -1.3146  -1.3089  -1.3026  -1.2990  -1.2967  -1.2913  -1.2841  -1.2753
    -1.2685  -1.2670  -1.2633  -1.2541  -1.2481  -1.2431  -1.2316  -1.2007
    -1.1995  -1.1989  -1.1946  -1.1923  -1.1861  -1.1551  -1.1386  -1.1356
    -1.1348  -1.1341  -1.1287  -1.1269  -1.1157  -1.1123  -1.1095  -1.0757
    -1.0738  -1.0677  -1.0669  -1.0460  -1.0444  -1.0349  -1.0058  -0.9975
    -0.9729  -0.9685  -0.9439  -0.9424  -0.9387  -0.9384  -0.9358  -0.9317
    -0.9280  -0.9273  -0.9249  -0.9219  -0.8923  -0.8900  -0.8696  -0.8695
    -0.8683  -0.8657  -0.8640  -0.8609  -0.8469  -0.5755  -0.5588  -0.4988
    -0.4976  -0.4656  -0.3070  -0.2424  -0.2381  -0.2025   0.0805   0.0817
     0.4122   0.4144   0.5059   0.5095   0.5458   0.5522   0.6949   0.6990
     0.8166   0.8203   0.9134   1.5045   1.5218   1.5242   1.5614   1.5688
     1.6135   1.6227   1.6917   1.6967   1.8966   1.9020   2.1406   2.2115
     2.2203   2.2312   2.6130   2.6207   2.6841   2.6863   2.6903   2.6953
     2.8420   2.8457   2.9008   2.9829   2.9958   3.2146   3.2224   3.3530
     3.3790   3.3854   3.6499   3.6585   3.7702   3.7842   3.7867   3.8582
     3.8862   3.9635   3.9754   4.2028   4.2113   4.2977   4.3042   4.4225
     4.4226   4.4491   4.4558   4.6256   5.2500   5.2761   5.3326   5.3576
     5.3664   5.5238   5.5375   5.6006   5.6501   5.6537   5.6619   5.6823
     5.7030   5.7048   5.7402   5.7443   5.9849   6.0216   6.0273   6.0333
     6.0454   6.0488   6.0566   6.0580   6.1338   6.1560   6.1637   6.1914

          k = 0.2500-0.2500-0.0833 (167653 PWs)   bands (ev):

   -19.3372  -7.1673  -6.9208  -6.3941  -6.3903  -5.9624  -5.5565  -5.4621
    -5.4585  -5.2641  -5.2639  -5.1543  -5.1443  -5.0673  -5.0457  -4.9717
    -4.8868  -4.8834  -4.8467  -4.8431  -4.6841  -4.6678  -4.6660  -4.6639
    -4.6575  -4.6036  -4.6024  -4.5919  -4.5892  -4.5536  -4.5467  -4.5392
    -4.4999  -4.4981  -4.4653  -4.4638  -4.4172  -4.4104  -4.4031  -4.4003
    -4.3941  -4.3824  -4.3809  -4.3420  -4.3228  -4.3218  -4.3149  -4.3141
    -4.2843  -4.2380  -4.2285  -4.2182  -4.2165  -4.2123  -4.2066  -4.2018
    -4.2000  -4.1989  -4.1422  -4.1330  -4.0923  -4.0833  -4.0726  -4.0512
    -4.0458  -4.0347  -4.0230  -4.0229  -4.0189  -4.0164  -3.9683  -3.9675
    -3.9553  -3.9530  -3.8615  -3.8477  -3.8473  -3.8408  -3.8072  -3.8014
    -3.7831  -3.7616  -3.7527  -3.7293  -3.7215  -3.7082  -3.7009  -3.6902
    -3.6862  -3.6499  -3.6318  -3.6241  -3.6181  -3.5898  -3.5890  -3.5870
    -3.5846  -3.5836  -3.5571  -3.5542  -3.5214  -3.5056  -3.5022  -3.4973
    -3.4679  -3.4630  -3.4484  -3.4212  -3.4184  -3.3833  -3.3808  -3.3456
    -3.3379  -3.3368  -3.3241  -3.3233  -3.3180  -3.3151  -3.2836  -3.2686
    -3.2303  -3.2283  -3.2206  -3.2112  -3.2102  -3.2057  -3.1858  -3.1852
    -3.1655  -3.1642  -3.1619  -3.1371  -3.1368  -3.1293  -3.1276  -3.1232
    -3.0896  -3.0880  -3.0523  -3.0493  -3.0491  -3.0477  -3.0458  -2.9667
    -2.9582  -2.9569  -2.9536  -2.9511  -2.9503  -2.9460  -2.9457  -2.9452
    -2.9445  -2.9356  -2.9277  -2.9125  -2.9092  -2.9067  -2.9021  -2.8930
    -2.8900  -2.8514  -2.8496  -2.8493  -2.8447  -2.8434  -2.8275  -2.8256
    -2.8191  -2.8179  -2.8150  -2.7578  -2.7570  -2.7519  -2.7511  -2.7471
    -2.7415  -2.7171  -2.6588  -2.6583  -2.6556  -2.6539  -2.6438  -2.6420
    -2.6339  -2.6282  -2.6251  -2.5913  -2.5871  -2.5841  -2.5823  -2.5784
    -2.5772  -2.5402  -2.5394  -2.5308  -2.5296  -2.5286  -2.5260  -2.4839
    -2.4670  -2.4643  -2.4127  -2.4094  -2.3952  -2.3934  -2.3854  -2.3830
    -2.3405  -2.3339  -2.3129  -2.3027  -2.2863  -2.2821  -2.2796  -2.2607
    -2.2585  -2.2498  -2.2294  -2.2039  -2.1934  -2.1807  -2.1751  -2.1748
    -2.1708  -2.1652  -2.1608  -2.1510  -2.1494  -2.1458  -2.1420  -2.1387
    -2.1380  -2.1314  -2.1271  -2.1114  -2.1097  -2.1082  -2.1034  -2.1003
    -2.0971  -2.0779  -2.0733  -2.0630  -2.0629  -2.0550  -2.0530  -2.0169
    -1.9848  -1.9837  -1.9492  -1.9365  -1.9339  -1.9283  -1.9184  -1.8992
    -1.8985  -1.8911  -1.8832  -1.8814  -1.8802  -1.8785  -1.8740  -1.8440
    -1.8434  -1.8433  -1.7984  -1.7983  -1.7635  -1.7556  -1.7118  -1.7106
    -1.6973  -1.6773  -1.6700  -1.6684  -1.6579  -1.6536  -1.6380  -1.6325
    -1.6300  -1.6296  -1.6267  -1.6254  -1.6238  -1.6232  -1.6055  -1.6006
    -1.5886  -1.5761  -1.5606  -1.5583  -1.5342  -1.5303  -1.5265  -1.5246
    -1.5204  -1.5181  -1.5062  -1.4950  -1.4836  -1.4776  -1.4705  -1.4614
    -1.4467  -1.4451  -1.4200  -1.4147  -1.4108  -1.4048  -1.3791  -1.3736
    -1.3626  -1.3612  -1.3607  -1.3543  -1.3351  -1.3345  -1.3280  -1.3188
    -1.3146  -1.3089  -1.3026  -1.2990  -1.2967  -1.2913  -1.2841  -1.2753
    -1.2685  -1.2670  -1.2633  -1.2541  -1.2481  -1.2431  -1.2316  -1.2007
    -1.1995  -1.1989  -1.1946  -1.1923  -1.1861  -1.1551  -1.1386  -1.1356
    -1.1348  -1.1341  -1.1287  -1.1269  -1.1157  -1.1123  -1.1095  -1.0757
    -1.0738  -1.0677  -1.0669  -1.0460  -1.0444  -1.0349  -1.0058  -0.9975
    -0.9729  -0.9685  -0.9439  -0.9424  -0.9387  -0.9384  -0.9358  -0.9317
    -0.9280  -0.9273  -0.9249  -0.9219  -0.8923  -0.8900  -0.8696  -0.8695
    -0.8683  -0.8657  -0.8640  -0.8609  -0.8469  -0.5755  -0.5588  -0.4988
    -0.4976  -0.4656  -0.3070  -0.2424  -0.2381  -0.2025   0.0805   0.0817
     0.4122   0.4144   0.5059   0.5095   0.5458   0.5522   0.6949   0.6990
     0.8166   0.8203   0.9134   1.5045   1.5218   1.5242   1.5614   1.5688
     1.6135   1.6227   1.6917   1.6967   1.8966   1.9020   2.1406   2.2115
     2.2203   2.2312   2.6130   2.6207   2.6841   2.6863   2.6903   2.6953
     2.8420   2.8457   2.9008   2.9829   2.9958   3.2146   3.2224   3.3530
     3.3790   3.3854   3.6499   3.6585   3.7702   3.7842   3.7867   3.8582
     3.8862   3.9635   3.9754   4.2028   4.2113   4.2977   4.3042   4.4225
     4.4226   4.4491   4.4558   4.6256   5.2500   5.2761   5.3326   5.3576
     5.3664   5.5238   5.5375   5.6006   5.6501   5.6537   5.6620   5.6823
     5.7029   5.7048   5.7402   5.7443   5.9849   6.0216   6.0273   6.0333
     6.0454   6.0488   6.0566   6.0580   6.1338   6.1560   6.1637   6.1914

          k =-0.2500 0.2500 0.2500 (167588 PWs)   bands (ev):

   -19.3372  -7.1673  -6.9208  -6.3941  -6.3903  -5.9624  -5.5565  -5.4621
    -5.4585  -5.2641  -5.2639  -5.1543  -5.1443  -5.0673  -5.0457  -4.9717
    -4.8868  -4.8834  -4.8467  -4.8431  -4.6841  -4.6678  -4.6660  -4.6639
    -4.6575  -4.6036  -4.6024  -4.5919  -4.5892  -4.5536  -4.5467  -4.5392
    -4.4999  -4.4981  -4.4653  -4.4638  -4.4172  -4.4104  -4.4031  -4.4003
    -4.3941  -4.3824  -4.3809  -4.3420  -4.3228  -4.3218  -4.3149  -4.3141
    -4.2843  -4.2380  -4.2285  -4.2182  -4.2165  -4.2123  -4.2066  -4.2018
    -4.2000  -4.1989  -4.1422  -4.1330  -4.0923  -4.0833  -4.0726  -4.0512
    -4.0458  -4.0347  -4.0230  -4.0229  -4.0189  -4.0164  -3.9683  -3.9675
    -3.9553  -3.9530  -3.8615  -3.8477  -3.8473  -3.8408  -3.8072  -3.8014
    -3.7831  -3.7616  -3.7527  -3.7293  -3.7215  -3.7082  -3.7009  -3.6902
    -3.6862  -3.6499  -3.6318  -3.6241  -3.6181  -3.5898  -3.5890  -3.5870
    -3.5846  -3.5836  -3.5571  -3.5542  -3.5214  -3.5056  -3.5022  -3.4973
    -3.4679  -3.4630  -3.4484  -3.4212  -3.4183  -3.3833  -3.3808  -3.3456
    -3.3379  -3.3368  -3.3241  -3.3233  -3.3180  -3.3151  -3.2836  -3.2686
    -3.2303  -3.2283  -3.2206  -3.2112  -3.2102  -3.2057  -3.1858  -3.1852
    -3.1655  -3.1642  -3.1619  -3.1370  -3.1368  -3.1292  -3.1276  -3.1232
    -3.0896  -3.0880  -3.0523  -3.0493  -3.0491  -3.0477  -3.0458  -2.9667
    -2.9582  -2.9569  -2.9536  -2.9511  -2.9503  -2.9460  -2.9457  -2.9452
    -2.9445  -2.9356  -2.9278  -2.9125  -2.9092  -2.9067  -2.9021  -2.8930
    -2.8900  -2.8514  -2.8496  -2.8493  -2.8447  -2.8434  -2.8274  -2.8256
    -2.8191  -2.8179  -2.8150  -2.7578  -2.7570  -2.7519  -2.7510  -2.7471
    -2.7415  -2.7171  -2.6588  -2.6583  -2.6556  -2.6539  -2.6438  -2.6420
    -2.6339  -2.6282  -2.6251  -2.5913  -2.5871  -2.5841  -2.5823  -2.5784
    -2.5772  -2.5402  -2.5394  -2.5308  -2.5296  -2.5286  -2.5260  -2.4840
    -2.4670  -2.4643  -2.4127  -2.4094  -2.3952  -2.3934  -2.3854  -2.3830
    -2.3405  -2.3339  -2.3129  -2.3027  -2.2863  -2.2821  -2.2796  -2.2607
    -2.2585  -2.2498  -2.2294  -2.2039  -2.1934  -2.1807  -2.1751  -2.1748
    -2.1708  -2.1652  -2.1608  -2.1510  -2.1494  -2.1458  -2.1420  -2.1387
    -2.1380  -2.1314  -2.1271  -2.1114  -2.1097  -2.1082  -2.1034  -2.1003
    -2.0971  -2.0779  -2.0733  -2.0630  -2.0629  -2.0550  -2.0530  -2.0169
    -1.9848  -1.9837  -1.9492  -1.9365  -1.9339  -1.9283  -1.9184  -1.8992
    -1.8985  -1.8911  -1.8832  -1.8814  -1.8802  -1.8785  -1.8740  -1.8440
    -1.8434  -1.8433  -1.7984  -1.7983  -1.7635  -1.7556  -1.7118  -1.7106
    -1.6973  -1.6773  -1.6701  -1.6684  -1.6579  -1.6536  -1.6380  -1.6325
    -1.6300  -1.6296  -1.6267  -1.6254  -1.6238  -1.6232  -1.6055  -1.6006
    -1.5886  -1.5761  -1.5606  -1.5583  -1.5342  -1.5303  -1.5265  -1.5246
    -1.5204  -1.5181  -1.5062  -1.4950  -1.4836  -1.4776  -1.4705  -1.4614
    -1.4467  -1.4451  -1.4200  -1.4147  -1.4108  -1.4048  -1.3791  -1.3736
    -1.3626  -1.3612  -1.3607  -1.3543  -1.3351  -1.3345  -1.3280  -1.3187
    -1.3146  -1.3089  -1.3026  -1.2990  -1.2967  -1.2913  -1.2841  -1.2753
    -1.2685  -1.2670  -1.2633  -1.2541  -1.2481  -1.2431  -1.2316  -1.2007
    -1.1995  -1.1990  -1.1946  -1.1923  -1.1861  -1.1551  -1.1386  -1.1356
    -1.1348  -1.1341  -1.1287  -1.1269  -1.1157  -1.1123  -1.1095  -1.0757
    -1.0738  -1.0677  -1.0669  -1.0460  -1.0444  -1.0349  -1.0058  -0.9975
    -0.9728  -0.9685  -0.9439  -0.9424  -0.9387  -0.9384  -0.9358  -0.9317
    -0.9280  -0.9273  -0.9249  -0.9219  -0.8924  -0.8900  -0.8696  -0.8695
    -0.8683  -0.8657  -0.8639  -0.8609  -0.8469  -0.5755  -0.5588  -0.4987
    -0.4976  -0.4656  -0.3070  -0.2424  -0.2381  -0.2025   0.0805   0.0817
     0.4122   0.4144   0.5059   0.5095   0.5458   0.5522   0.6949   0.6990
     0.8166   0.8203   0.9134   1.5045   1.5218   1.5242   1.5614   1.5689
     1.6135   1.6227   1.6917   1.6967   1.8967   1.9020   2.1406   2.2115
     2.2203   2.2312   2.6130   2.6207   2.6841   2.6863   2.6903   2.6953
     2.8420   2.8457   2.9008   2.9829   2.9958   3.2146   3.2224   3.3530
     3.3790   3.3854   3.6499   3.6585   3.7702   3.7842   3.7867   3.8583
     3.8862   3.9635   3.9754   4.2028   4.2113   4.2977   4.3042   4.4225
     4.4226   4.4491   4.4558   4.6257   5.2497   5.2762   5.3228   5.3536
     5.3576   5.5237   5.5375   5.5995   5.6504   5.6538   5.6667   5.6853
     5.7046   5.7238   5.7441   5.7714   5.9852   6.0218   6.0274   6.0333
     6.0456   6.0489   6.0566   6.0582   6.1318   6.1546   6.1585   6.2694

     the Fermi energy is     0.7693 ev

!    total energy              =   -7425.28579615 Ry
     Harris-Foulkes estimate   =   -7425.28579614 Ry
     estimated scf accuracy    <          4.2E-09 Ry

     The total energy is the sum of the following terms:

     one-electron contribution =  -48785.74950994 Ry
     hartree contribution      =   24940.89839762 Ry
     xc contribution           =   -3604.23984232 Ry
     ewald contribution        =   20023.80768627 Ry
     smearing contrib. (-TS)   =      -0.00252778 Ry

     convergence has been achieved in  28 iterations

     Writing output data file 4703298.save

     init_run     :    107.48s CPU    129.66s WALL (       1 calls)
     electrons    :   6323.73s CPU   6814.95s WALL (       1 calls)

     Called by init_run:
     wfcinit      :     73.34s CPU     81.22s WALL (       1 calls)
     potinit      :      7.87s CPU      8.31s WALL (       1 calls)

     Called by electrons:
     c_bands      :   4995.38s CPU   5382.42s WALL (      29 calls)
     sum_band     :    804.20s CPU    889.36s WALL (      29 calls)
     v_of_rho     :    112.33s CPU    123.73s WALL (      29 calls)
     newd         :    427.34s CPU    433.75s WALL (      29 calls)
     mix_rho      :      2.86s CPU      3.25s WALL (      29 calls)
     vdW_energy   :      9.93s CPU     10.80s WALL (      29 calls)
     vdW_ffts     :     56.94s CPU     62.66s WALL (      58 calls)
     vdW_v        :     15.38s CPU     16.25s WALL (      29 calls)

     Called by c_bands:
     init_us_2    :     10.84s CPU     11.38s WALL (     354 calls)
     cegterg      :   4942.24s CPU   5328.10s WALL (     174 calls)

     Called by *egterg:
     h_psi        :   2089.81s CPU   2443.35s WALL (     843 calls)
     s_psi        :    366.92s CPU    368.82s WALL (     843 calls)
     g_psi        :      4.62s CPU      4.61s WALL (     663 calls)
     cdiaghg      :   1400.97s CPU   1405.08s WALL (     831 calls)

     Called by h_psi:
     add_vuspsi   :    365.97s CPU    367.97s WALL (     843 calls)

     General routines
     calbec       :    523.03s CPU    526.39s WALL (    1017 calls)
     fft          :    130.93s CPU    141.59s WALL (    1914 calls)
     ffts         :      1.29s CPU      1.66s WALL (      58 calls)
     fftw         :   1471.38s CPU   1855.73s WALL (  466644 calls)
     interpolate  :      3.72s CPU      4.64s WALL (      58 calls)
     davcio       :      0.00s CPU      0.25s WALL (       6 calls)

     Parallel routines
     fft_scatter  :   1002.78s CPU   1281.66s WALL (  468616 calls)

     PWSCF        :     1h47m CPU        1h55m WALL


   This run was terminated on:  23: 6: 0  24Jun2015            

=------------------------------------------------------------------------------=
   JOB DONE.
=------------------------------------------------------------------------------=
