
     Program PWSCF v.5.1.2 starts on 24Jun2015 at 17:13:55 

     This program is part of the open-source Quantum ESPRESSO suite
     for quantum simulation of materials; please cite
         "P. Giannozzi et al., J. Phys.:Condens. Matter 21 395502 (2009);
          URL http://www.quantum-espresso.org", 
     in publications or presentations arising from this work. More details at
     http://www.quantum-espresso.org/quote

     Parallel version (MPI), running on    32 processors
     R & G space division:  proc/nbgrp/npool/nimage =      32
     Reading input from top.O1.Au62.d.2.6.phi.25.psi.0.in
Warning: card &IONS ignored
Warning: card / ignored
Warning: card &CELL ignored
Warning: card / ignored

     Current dimensions of program PWSCF are:
     Max number of different atomic species (ntypx) = 10
     Max number of k-points (npk) =  40000
     Max angular momentum in pseudopotentials (lmaxx) =  3

     IMPORTANT: XC functional enforced from input :
     Exchange-correlation      = VDW-DF ( 1  4  4  0 1 0)
     Any further DFT definition will be discarded
     Please, verify this is what you really want


     Subspace diagonalization in iterative solution of the eigenvalue problem:
     a serial algorithm will be used


     Parallelization info
     --------------------
     sticks:   dense  smooth     PW     G-vecs:    dense   smooth      PW
     Min         578     289     74               118518    41891    5486
     Max         579     290     75               118533    41932    5497
     Sum       18505    9265   2385              3792731  1341081  175711


     Title: 
     top.O1.Au62.d.2.6.phi.25.psi.0                                             


     bravais-lattice index     =            8
     lattice parameter (alat)  =      24.1233  a.u.
     unit-cell volume          =   28076.2361 (a.u.)^3
     number of atoms/cell      =           75
     number of atomic types    =            3
     number of electrons       =       800.00
     number of Kohn-Sham states=          480
     kinetic-energy cutoff     =      50.0000  Ry
     charge density cutoff     =     400.0000  Ry
     convergence threshold     =      1.0E-08
     mixing beta               =       0.7000
     number of iterations used =            8  plain     mixing
     Exchange-correlation      = VDW-DF ( 1  4  4  0 1 0)

     celldm(1)=  24.123277  celldm(2)=   1.000000  celldm(3)=   2.000000
     celldm(4)=   0.000000  celldm(5)=   0.000000  celldm(6)=   0.000000

     crystal axes: (cart. coord. in units of alat)
               a(1) = (   1.000000   0.000000   0.000000 )  
               a(2) = (   0.000000   1.000000   0.000000 )  
               a(3) = (   0.000000   0.000000   2.000000 )  

     reciprocal axes: (cart. coord. in units 2 pi/alat)
               b(1) = (  1.000000  0.000000  0.000000 )  
               b(2) = (  0.000000  1.000000  0.000000 )  
               b(3) = (  0.000000  0.000000  0.500000 )  


     PseudoPot. # 1 for Au read from file:
     /home/scc/andrejb/qe/pseudo/Au.pbe-nd-van.UPF
     MD5 check sum: 458681b50f36d87ef23c61b04bba420a
     Pseudo is Ultrasoft + core correction, Zval = 11.0
     Generated by new atomic code, or converted to UPF format
     Using radial grid of  985 points,  3 beta functions with: 
                l(1) =   1
                l(2) =   2
                l(3) =   2
     Q(r) pseudized with  8 coefficients,  rinner =    1.100   1.100   1.100
                                                       1.100   1.100

     PseudoPot. # 2 for H  read from file:
     /home/scc/andrejb/qe/pseudo/H.pbe-van_ak.UPF
     MD5 check sum: 403db7282739603aa925980fa9b8608d
     Pseudo is Ultrasoft, Zval =  1.0
     Generated by new atomic code, or converted to UPF format
     Using radial grid of  615 points,  1 beta functions with: 
                l(1) =   0
     Q(r) pseudized with  8 coefficients,  rinner =    0.800

     PseudoPot. # 3 for O  read from file:
     /home/scc/andrejb/qe/pseudo/O.pbe-van_ak.UPF
     MD5 check sum: 4b8c549914a63cae506c6ff22b5af4fe
     Pseudo is Ultrasoft, Zval =  6.0
     Generated by new atomic code, or converted to UPF format
     Using radial grid of  737 points,  4 beta functions with: 
                l(1) =   0
                l(2) =   0
                l(3) =   1
                l(4) =   1
     Q(r) pseudized with  8 coefficients,  rinner =    0.800   0.800   0.800


     vdW kernel table read from file vdW_kernel_table
     MD5 check sum: 48e77a2e26edf626eeb0eaa751ad5cac

     atomic species   valence    mass     pseudopotential
        Au            11.00   196.96657     Au( 1.00)
        H              1.00     1.01000     H ( 1.00)
        O              6.00    16.00000     O ( 1.00)

     No symmetry found



   Cartesian axes

     site n.     atom                  positions (alat units)
         1           O   tau(   1) = (   0.4998324   0.3332216   0.7029927  )
         2           H   tau(   2) = (   0.4742046   0.2775985   0.7484866  )
         3           H   tau(   3) = (   0.5246755   0.3871743   0.7508503  )
         4           Au  tau(   4) = (   0.0000000   0.0000000   0.0000000  )
         5           Au  tau(   5) = (   0.3332217   0.0000000   0.0000000  )
         6           Au  tau(   6) = (   0.6664435   0.0000000   0.0000000  )
         7           Au  tau(   7) = (   0.1666109   0.1666109   0.0000000  )
         8           Au  tau(   8) = (   0.4998326   0.1666109   0.0000000  )
         9           Au  tau(   9) = (   0.8330542   0.1666109   0.0000000  )
        10           Au  tau(  10) = (   0.0000000   0.3332217   0.0000000  )
        11           Au  tau(  11) = (   0.3332217   0.3332217   0.0000000  )
        12           Au  tau(  12) = (   0.6664435   0.3332217   0.0000000  )
        13           Au  tau(  13) = (   0.1666109   0.4998326   0.0000000  )
        14           Au  tau(  14) = (   0.4998326   0.4998326   0.0000000  )
        15           Au  tau(  15) = (   0.8330542   0.4998326   0.0000000  )
        16           Au  tau(  16) = (   0.0000000   0.6664435   0.0000000  )
        17           Au  tau(  17) = (   0.3332217   0.6664435   0.0000000  )
        18           Au  tau(  18) = (   0.6664435   0.6664435   0.0000000  )
        19           Au  tau(  19) = (   0.1666109   0.8330542   0.0000000  )
        20           Au  tau(  20) = (   0.4998326   0.8330542   0.0000000  )
        21           Au  tau(  21) = (   0.8330542   0.8330542   0.0000000  )
        22           Au  tau(  22) = (   0.1666109   0.0000000   0.1666109  )
        23           Au  tau(  23) = (   0.4998326   0.0000000   0.1666109  )
        24           Au  tau(  24) = (   0.8330542   0.0000000   0.1666109  )
        25           Au  tau(  25) = (   0.0000000   0.1666109   0.1666109  )
        26           Au  tau(  26) = (   0.3332217   0.1666109   0.1666109  )
        27           Au  tau(  27) = (   0.6664435   0.1666109   0.1666109  )
        28           Au  tau(  28) = (   0.1666109   0.3332217   0.1666109  )
        29           Au  tau(  29) = (   0.4998326   0.3332217   0.1666109  )
        30           Au  tau(  30) = (   0.8330542   0.3332217   0.1666109  )
        31           Au  tau(  31) = (   0.0000000   0.4998326   0.1666109  )
        32           Au  tau(  32) = (   0.3332217   0.4998326   0.1666109  )
        33           Au  tau(  33) = (   0.6664435   0.4998326   0.1666109  )
        34           Au  tau(  34) = (   0.1666109   0.6664435   0.1666109  )
        35           Au  tau(  35) = (   0.4998326   0.6664435   0.1666109  )
        36           Au  tau(  36) = (   0.8330542   0.6664435   0.1666109  )
        37           Au  tau(  37) = (   0.0000000   0.8330542   0.1666109  )
        38           Au  tau(  38) = (   0.3332217   0.8330542   0.1666109  )
        39           Au  tau(  39) = (   0.6664435   0.8330542   0.1666109  )
        40           Au  tau(  40) = (  -0.0000182  -0.0000182   0.3335478  )
        41           Au  tau(  41) = (   0.3332215  -0.0000181   0.3335472  )
        42           Au  tau(  42) = (   0.6664447  -0.0000183   0.3335481  )
        43           Au  tau(  43) = (  -0.0000181   0.3332215   0.3335472  )
        44           Au  tau(  44) = (   0.3332215   0.3332215   0.3335468  )
        45           Au  tau(  45) = (   0.6664445   0.3332215   0.3335478  )
        46           Au  tau(  46) = (  -0.0000183   0.6664447   0.3335481  )
        47           Au  tau(  47) = (   0.3332215   0.6664445   0.3335478  )
        48           Au  tau(  48) = (   0.6664446   0.6664446   0.3335486  )
        49           Au  tau(  49) = (   0.1666097   0.1666097   0.3335483  )
        50           Au  tau(  50) = (   0.4998320   0.1666098   0.3335477  )
        51           Au  tau(  51) = (   0.8330732   0.1666096   0.3335481  )
        52           Au  tau(  52) = (   0.1666098   0.4998320   0.3335477  )
        53           Au  tau(  53) = (   0.4998321   0.4998321   0.3335470  )
        54           Au  tau(  54) = (   0.8330730   0.4998322   0.3335474  )
        55           Au  tau(  55) = (   0.1666096   0.8330732   0.3335481  )
        56           Au  tau(  56) = (   0.4998322   0.8330730   0.3335474  )
        57           Au  tau(  57) = (   0.8330731   0.8330731   0.3335478  )
        58           Au  tau(  58) = (   0.1666104  -0.0000111   0.4993095  )
        59           Au  tau(  59) = (   0.4998323  -0.0000112   0.4993099  )
        60           Au  tau(  60) = (   0.8330661  -0.0000111   0.4993009  )
        61           Au  tau(  61) = (  -0.0000111   0.1666104   0.4993095  )
        62           Au  tau(  62) = (   0.3332214   0.1666106   0.4993185  )
        63           Au  tau(  63) = (   0.6664437   0.1666106   0.4993187  )
        64           Au  tau(  64) = (   0.1666106   0.3332214   0.4993185  )
        65           Au  tau(  65) = (   0.4998324   0.3332216   0.4993185  )
        66           Au  tau(  66) = (   0.8330659   0.3332215   0.4993103  )
        67           Au  tau(  67) = (  -0.0000112   0.4998323   0.4993099  )
        68           Au  tau(  68) = (   0.3332216   0.4998324   0.4993185  )
        69           Au  tau(  69) = (   0.6664436   0.4998325   0.4993187  )
        70           Au  tau(  70) = (   0.1666106   0.6664437   0.4993187  )
        71           Au  tau(  71) = (   0.4998325   0.6664436   0.4993187  )
        72           Au  tau(  72) = (   0.8330658   0.6664438   0.4993102  )
        73           Au  tau(  73) = (  -0.0000111   0.8330661   0.4993009  )
        74           Au  tau(  74) = (   0.3332215   0.8330659   0.4993103  )
        75           Au  tau(  75) = (   0.6664438   0.8330658   0.4993102  )

     number of k points=     6  Marzari-Vanderbilt smearing, width (Ry)=  0.0200
                       cart. coord. in units 2pi/alat
        k(    1) = (   0.2500000   0.2500000   0.0833333), wk =   0.3333333
        k(    2) = (   0.2500000   0.2500000  -0.2500000), wk =   0.3333333
        k(    3) = (  -0.2500000  -0.2500000   0.0833333), wk =   0.3333333
        k(    4) = (  -0.2500000   0.2500000  -0.0833333), wk =   0.3333333
        k(    5) = (   0.2500000  -0.2500000  -0.0833333), wk =   0.3333333
        k(    6) = (  -0.2500000   0.2500000   0.2500000), wk =   0.3333333

     Dense  grid:  3792731 G-vectors     FFT dimensions: ( 160, 160, 320)

     Smooth grid:  1341081 G-vectors     FFT dimensions: ( 120, 120, 225)

     Largest allocated arrays     est. size (Mb)     dimensions
        Kohn-Sham Wavefunctions        38.58 Mb     (    5267,  480)
        NL pseudopotentials            76.03 Mb     (    5267,  946)
        Each V/rho on FFT grid          3.91 Mb     (  256000)
        Each G-vector array             0.90 Mb     (  118520)
        G-vector shells                 0.08 Mb     (   10286)
     Largest temporary arrays     est. size (Mb)     dimensions
        Auxiliary wavefunctions       154.31 Mb     (    5267, 1920)
        Each subspace H/S matrix       56.25 Mb     (    1920, 1920)
        Each <psi_i|beta_j> matrix      6.93 Mb     (     946,  480)
        Arrays for rho mixing          31.25 Mb     (  256000,    8)

     Initial potential from superposition of free atoms
     Check: negative starting charge=   -1.945132

     starting charge  799.16392, renormalised to  800.00000

     negative rho (up, down):  1.947E+00 0.000E+00


     ************************************************************************
     *
     * You are using vdW-DF for exchange-correlation in this calculation.
     * Please cite the following three references that made this development
     * possible:
     *
     *   M. Dion, H. Rydberg, E. Schroder, D. C. Langreth, and
     *   B. I. Lundqvist, Phys. Rev. Lett. 92, 246401 (2004).
     *
     *   T. Thonhauser, V. R. Cooper, S. Li, A. Puzder, P. Hyldgaard, and
     *   D. C. Langreth, Phys. Rev. B 76, 125112 (2007).
     *
     *   G. Roman-Perez and J. M. Soler, Phys. Rev. Lett. 103, 096102 (2009).
     *
     *
     * If you are using vdW-DF2, please also cite:
     *
     *   K. Lee, E. D. Murray, L. Kong, B. I. Lundqvist, and
     *   D. C. Langreth, Phys. Rev. B 82, 081101(R) (2010).
     *
     *
     * If you are calculating the stress with vdW-DF, please also cite:
     *
     *   R. Sabatini, E. Kucukbenli, B. Kolb, T. Thonhauser, and
     *   S. de Gironcoli, J. Phys.: Condens. Matter 24, 424209 (2012).
     *
     ************************************************************************

     Carrying out vdW-DF run using the following parameters:

     Nqs =      20    Nr_points =    1024   r_max =   100.000
     q_mesh =
               0.00001000     0.04494208     0.09755937     0.15916263
               0.23128650     0.31572767     0.41458969     0.53033537
               0.66584808     0.82450364     1.01025438     1.22772762
               1.48234092     1.78043706     2.12944203     2.53805004
               3.01644009     3.57652955     4.23227104     5.00000000

     Gradients computed in reciprocal space

     ************************************************************************


     Starting wfc are  654 randomized atomic wfcs

     total cpu time spent up to now is      105.5 secs

     Self-consistent Calculation

     iteration #  1     ecut=    50.00 Ry     beta=0.70
     Davidson diagonalization with overlap
     ethr =  1.00E-02,  avg # of iterations =  3.0

     Threshold (ethr) on eigenvalues was too large:
     Diagonalizing with lowered threshold

     Davidson diagonalization with overlap
     ethr =  4.31E-04,  avg # of iterations =  2.5

     negative rho (up, down):  1.947E+00 0.000E+00

     total cpu time spent up to now is      459.8 secs

     total energy              =   -7422.98763970 Ry
     Harris-Foulkes estimate   =   -7426.09053054 Ry
     estimated scf accuracy    <       3.82827719 Ry

     iteration #  2     ecut=    50.00 Ry     beta=0.70
     Davidson diagonalization with overlap
     ethr =  4.79E-04,  avg # of iterations = 11.3

     negative rho (up, down):  1.941E+00 0.000E+00

     total cpu time spent up to now is     1032.5 secs

     total energy              =   -7414.16506374 Ry
     Harris-Foulkes estimate   =   -7432.91665077 Ry
     estimated scf accuracy    <     100.81746502 Ry

     iteration #  3     ecut=    50.00 Ry     beta=0.70
     Davidson diagonalization with overlap
     ethr =  4.79E-04,  avg # of iterations =  6.0

     negative rho (up, down):  1.951E+00 0.000E+00

     total cpu time spent up to now is     1398.1 secs

     total energy              =   -7424.35226438 Ry
     Harris-Foulkes estimate   =   -7425.88113174 Ry
     estimated scf accuracy    <       5.99150684 Ry

     iteration #  4     ecut=    50.00 Ry     beta=0.70
     Davidson diagonalization with overlap
     ethr =  4.79E-04,  avg # of iterations =  6.0

     negative rho (up, down):  1.955E+00 0.000E+00

     total cpu time spent up to now is     1616.5 secs

     total energy              =   -7424.54775177 Ry
     Harris-Foulkes estimate   =   -7425.95242208 Ry
     estimated scf accuracy    <      11.80281938 Ry

     iteration #  5     ecut=    50.00 Ry     beta=0.70
     Davidson diagonalization with overlap
     ethr =  4.79E-04,  avg # of iterations =  6.0

     negative rho (up, down):  1.963E+00 0.000E+00

     total cpu time spent up to now is     1825.1 secs

     total energy              =   -7425.24159663 Ry
     Harris-Foulkes estimate   =   -7425.40021155 Ry
     estimated scf accuracy    <       0.79910053 Ry

     iteration #  6     ecut=    50.00 Ry     beta=0.70
     Davidson diagonalization with overlap
     ethr =  9.99E-05,  avg # of iterations =  4.7

     negative rho (up, down):  1.967E+00 0.000E+00

     total cpu time spent up to now is     2025.6 secs

     total energy              =   -7425.27708282 Ry
     Harris-Foulkes estimate   =   -7425.31907545 Ry
     estimated scf accuracy    <       0.14574109 Ry

     iteration #  7     ecut=    50.00 Ry     beta=0.70
     Davidson diagonalization with overlap
     ethr =  1.82E-05,  avg # of iterations = 11.2

     negative rho (up, down):  1.969E+00 0.000E+00

     total cpu time spent up to now is     2298.4 secs

     total energy              =   -7425.27987332 Ry
     Harris-Foulkes estimate   =   -7425.30994407 Ry
     estimated scf accuracy    <       0.13279064 Ry

     iteration #  8     ecut=    50.00 Ry     beta=0.70
     Davidson diagonalization with overlap
     ethr =  1.66E-05,  avg # of iterations =  3.0

     negative rho (up, down):  1.971E+00 0.000E+00

     total cpu time spent up to now is     2487.2 secs

     total energy              =   -7425.28199182 Ry
     Harris-Foulkes estimate   =   -7425.30340806 Ry
     estimated scf accuracy    <       0.09167756 Ry

     iteration #  9     ecut=    50.00 Ry     beta=0.70
     Davidson diagonalization with overlap
     ethr =  1.15E-05,  avg # of iterations =  4.7

     negative rho (up, down):  1.972E+00 0.000E+00

     total cpu time spent up to now is     2687.7 secs

     total energy              =   -7425.28915484 Ry
     Harris-Foulkes estimate   =   -7425.29588082 Ry
     estimated scf accuracy    <       0.02250158 Ry

     iteration # 10     ecut=    50.00 Ry     beta=0.70
     Davidson diagonalization with overlap
     ethr =  2.81E-06,  avg # of iterations = 10.3

     negative rho (up, down):  1.972E+00 0.000E+00

     total cpu time spent up to now is     2959.3 secs

     total energy              =   -7425.29226169 Ry
     Harris-Foulkes estimate   =   -7425.29377775 Ry
     estimated scf accuracy    <       0.00433655 Ry

     iteration # 11     ecut=    50.00 Ry     beta=0.70
     Davidson diagonalization with overlap
     ethr =  5.42E-07,  avg # of iterations =  6.8

     negative rho (up, down):  1.973E+00 0.000E+00

     total cpu time spent up to now is     3194.7 secs

     total energy              =   -7425.29289602 Ry
     Harris-Foulkes estimate   =   -7425.29339943 Ry
     estimated scf accuracy    <       0.00135754 Ry

     iteration # 12     ecut=    50.00 Ry     beta=0.70
     Davidson diagonalization with overlap
     ethr =  1.70E-07,  avg # of iterations =  2.0

     negative rho (up, down):  1.973E+00 0.000E+00

     total cpu time spent up to now is     3375.0 secs

     total energy              =   -7425.29307354 Ry
     Harris-Foulkes estimate   =   -7425.29324351 Ry
     estimated scf accuracy    <       0.00059168 Ry

     iteration # 13     ecut=    50.00 Ry     beta=0.70
     Davidson diagonalization with overlap
     ethr =  7.40E-08,  avg # of iterations =  2.3

     negative rho (up, down):  1.974E+00 0.000E+00

     total cpu time spent up to now is     3552.4 secs

     total energy              =   -7425.29310816 Ry
     Harris-Foulkes estimate   =   -7425.29324673 Ry
     estimated scf accuracy    <       0.00070761 Ry

     iteration # 14     ecut=    50.00 Ry     beta=0.70
     Davidson diagonalization with overlap
     ethr =  7.40E-08,  avg # of iterations =  2.0

     negative rho (up, down):  1.974E+00 0.000E+00

     total cpu time spent up to now is     3714.5 secs

     total energy              =   -7425.29316689 Ry
     Harris-Foulkes estimate   =   -7425.29319465 Ry
     estimated scf accuracy    <       0.00010789 Ry

     iteration # 15     ecut=    50.00 Ry     beta=0.70
     Davidson diagonalization with overlap
     ethr =  1.35E-08,  avg # of iterations =  2.0

     negative rho (up, down):  1.974E+00 0.000E+00

     total cpu time spent up to now is     3883.9 secs

     total energy              =   -7425.29317134 Ry
     Harris-Foulkes estimate   =   -7425.29318983 Ry
     estimated scf accuracy    <       0.00006669 Ry

     iteration # 16     ecut=    50.00 Ry     beta=0.70
     Davidson diagonalization with overlap
     ethr =  8.34E-09,  avg # of iterations =  3.0

     negative rho (up, down):  1.974E+00 0.000E+00

     total cpu time spent up to now is     4068.1 secs

     total energy              =   -7425.29316791 Ry
     Harris-Foulkes estimate   =   -7425.29319891 Ry
     estimated scf accuracy    <       0.00024155 Ry

     iteration # 17     ecut=    50.00 Ry     beta=0.70
     Davidson diagonalization with overlap
     ethr =  8.34E-09,  avg # of iterations =  2.0

     negative rho (up, down):  1.974E+00 0.000E+00

     total cpu time spent up to now is     4236.5 secs

     total energy              =   -7425.29318001 Ry
     Harris-Foulkes estimate   =   -7425.29318481 Ry
     estimated scf accuracy    <       0.00002021 Ry

     iteration # 18     ecut=    50.00 Ry     beta=0.70
     Davidson diagonalization with overlap
     ethr =  2.53E-09,  avg # of iterations =  2.0

     negative rho (up, down):  1.974E+00 0.000E+00

     total cpu time spent up to now is     4406.6 secs

     total energy              =   -7425.29318176 Ry
     Harris-Foulkes estimate   =   -7425.29318327 Ry
     estimated scf accuracy    <       0.00000559 Ry

     iteration # 19     ecut=    50.00 Ry     beta=0.70
     Davidson diagonalization with overlap
     ethr =  6.99E-10,  avg # of iterations =  2.0

     negative rho (up, down):  1.974E+00 0.000E+00

     total cpu time spent up to now is     4583.6 secs

     total energy              =   -7425.29318194 Ry
     Harris-Foulkes estimate   =   -7425.29318286 Ry
     estimated scf accuracy    <       0.00000261 Ry

     iteration # 20     ecut=    50.00 Ry     beta=0.70
     Davidson diagonalization with overlap
     ethr =  3.27E-10,  avg # of iterations =  2.0

     negative rho (up, down):  1.974E+00 0.000E+00

     total cpu time spent up to now is     4748.8 secs

     total energy              =   -7425.29318200 Ry
     Harris-Foulkes estimate   =   -7425.29318239 Ry
     estimated scf accuracy    <       0.00000048 Ry

     iteration # 21     ecut=    50.00 Ry     beta=0.70
     Davidson diagonalization with overlap
     ethr =  5.97E-11,  avg # of iterations =  2.0

     negative rho (up, down):  1.974E+00 0.000E+00

     total cpu time spent up to now is     4922.0 secs

     total energy              =   -7425.29318199 Ry
     Harris-Foulkes estimate   =   -7425.29318210 Ry
     estimated scf accuracy    <       0.00000008 Ry

     iteration # 22     ecut=    50.00 Ry     beta=0.70
     Davidson diagonalization with overlap
     ethr =  9.94E-12,  avg # of iterations =  3.0

     negative rho (up, down):  1.974E+00 0.000E+00

     total cpu time spent up to now is     5139.5 secs

     total energy              =   -7425.29318193 Ry
     Harris-Foulkes estimate   =   -7425.29318202 Ry
     estimated scf accuracy    <       0.00000008 Ry

     iteration # 23     ecut=    50.00 Ry     beta=0.70
     Davidson diagonalization with overlap
     ethr =  9.80E-12,  avg # of iterations =  2.3

     negative rho (up, down):  1.974E+00 0.000E+00

     total cpu time spent up to now is     5316.8 secs

     total energy              =   -7425.29318190 Ry
     Harris-Foulkes estimate   =   -7425.29318195 Ry
     estimated scf accuracy    <       0.00000007 Ry

     iteration # 24     ecut=    50.00 Ry     beta=0.70
     Davidson diagonalization with overlap
     ethr =  8.49E-12,  avg # of iterations =  2.0

     negative rho (up, down):  1.974E+00 0.000E+00

     total cpu time spent up to now is     5489.1 secs

     total energy              =   -7425.29318188 Ry
     Harris-Foulkes estimate   =   -7425.29318191 Ry
     estimated scf accuracy    <       0.00000003 Ry

     iteration # 25     ecut=    50.00 Ry     beta=0.70
     Davidson diagonalization with overlap
     ethr =  4.17E-12,  avg # of iterations =  2.0

     negative rho (up, down):  1.974E+00 0.000E+00

     total cpu time spent up to now is     5656.7 secs

     total energy              =   -7425.29318186 Ry
     Harris-Foulkes estimate   =   -7425.29318188 Ry
     estimated scf accuracy    <       0.00000002 Ry

     iteration # 26     ecut=    50.00 Ry     beta=0.70
     Davidson diagonalization with overlap
     ethr =  2.13E-12,  avg # of iterations =  2.0

     negative rho (up, down):  1.974E+00 0.000E+00

     total cpu time spent up to now is     5827.9 secs

     total energy              =   -7425.29318187 Ry
     Harris-Foulkes estimate   =   -7425.29318186 Ry
     estimated scf accuracy    <       0.00000002 Ry

     iteration # 27     ecut=    50.00 Ry     beta=0.70
     Davidson diagonalization with overlap
     ethr =  2.13E-12,  avg # of iterations =  2.0

     negative rho (up, down):  1.974E+00 0.000E+00

     total cpu time spent up to now is     5988.7 secs

     End of self-consistent calculation

          k = 0.2500 0.2500 0.0833 (167653 PWs)   bands (ev):

   -20.3236  -8.1001  -6.6926  -6.1646  -6.1639  -5.7350  -5.3431  -5.2411
    -5.2319  -5.0752  -5.0350  -5.0192  -4.9190  -4.8714  -4.8383  -4.7996
    -4.7387  -4.6576  -4.6519  -4.6149  -4.6075  -4.4547  -4.4369  -4.4356
    -4.4335  -4.4291  -4.3736  -4.3709  -4.3623  -4.3583  -4.3242  -4.3132
    -4.3029  -4.2696  -4.2657  -4.2362  -4.2350  -4.1841  -4.1826  -4.1733
    -4.1708  -4.1654  -4.1522  -4.1503  -4.1115  -4.0929  -4.0926  -4.0864
    -4.0849  -4.0534  -4.0037  -3.9893  -3.9878  -3.9855  -3.9828  -3.9742
    -3.9716  -3.9705  -3.9682  -3.9078  -3.9060  -3.8569  -3.8512  -3.8436
    -3.8178  -3.8176  -3.7966  -3.7942  -3.7918  -3.7907  -3.7877  -3.7386
    -3.7364  -3.7257  -3.7245  -3.6211  -3.6186  -3.6145  -3.6109  -3.5751
    -3.5704  -3.5523  -3.5238  -3.5206  -3.4948  -3.4914  -3.4730  -3.4723
    -3.4598  -3.4589  -3.4040  -3.4025  -3.3896  -3.3688  -3.3611  -3.3569
    -3.3566  -3.3562  -3.3291  -3.3288  -3.2933  -3.2890  -3.2715  -3.2701
    -3.2386  -3.2364  -3.2191  -3.1930  -3.1903  -3.1533  -3.1531  -3.1172
    -3.1089  -3.1088  -3.0959  -3.0950  -3.0898  -3.0882  -3.0537  -3.0411
    -3.0017  -3.0005  -2.9918  -2.9832  -2.9819  -2.9780  -2.9571  -2.9567
    -2.9362  -2.9356  -2.9336  -2.9096  -2.9081  -2.9004  -2.8991  -2.8960
    -2.8619  -2.8580  -2.8225  -2.8221  -2.8202  -2.8185  -2.8177  -2.7378
    -2.7284  -2.7250  -2.7246  -2.7236  -2.7229  -2.7203  -2.7170  -2.7165
    -2.7160  -2.7070  -2.6990  -2.6869  -2.6834  -2.6791  -2.6749  -2.6674
    -2.6646  -2.6221  -2.6208  -2.6202  -2.6176  -2.6152  -2.5988  -2.5973
    -2.5933  -2.5897  -2.5861  -2.5497  -2.5281  -2.5266  -2.5218  -2.5211
    -2.5144  -2.4897  -2.4608  -2.4292  -2.4267  -2.4264  -2.4243  -2.4141
    -2.4054  -2.4045  -2.3977  -2.3883  -2.3611  -2.3597  -2.3520  -2.3513
    -2.3489  -2.3336  -2.3103  -2.3097  -2.3006  -2.3001  -2.2993  -2.2833
    -2.2559  -2.2365  -2.2334  -2.1816  -2.1808  -2.1652  -2.1604  -2.1559
    -2.1458  -2.1087  -2.1071  -2.0836  -2.0702  -2.0536  -2.0529  -2.0499
    -2.0309  -2.0274  -2.0206  -2.0018  -1.9655  -1.9627  -1.9522  -1.9492
    -1.9480  -1.9375  -1.9354  -1.9250  -1.9207  -1.9194  -1.9161  -1.9142
    -1.9116  -1.9109  -1.9003  -1.8995  -1.8821  -1.8810  -1.8800  -1.8726
    -1.8698  -1.8675  -1.8468  -1.8462  -1.8348  -1.8332  -1.8281  -1.8224
    -1.7877  -1.7569  -1.7533  -1.7202  -1.7037  -1.7033  -1.6920  -1.6898
    -1.6698  -1.6684  -1.6544  -1.6533  -1.6530  -1.6511  -1.6470  -1.6368
    -1.6164  -1.6149  -1.6121  -1.5704  -1.5674  -1.5300  -1.5292  -1.4831
    -1.4821  -1.4688  -1.4472  -1.4411  -1.4399  -1.4233  -1.4206  -1.4053
    -1.4046  -1.4005  -1.3998  -1.3992  -1.3983  -1.3926  -1.3911  -1.3739
    -1.3730  -1.3585  -1.3467  -1.3287  -1.3261  -1.3022  -1.3000  -1.2993
    -1.2983  -1.2947  -1.2875  -1.2693  -1.2680  -1.2550  -1.2479  -1.2381
    -1.2322  -1.2176  -1.2110  -1.1876  -1.1869  -1.1799  -1.1758  -1.1436
    -1.1429  -1.1343  -1.1321  -1.1258  -1.1197  -1.1043  -1.1036  -1.0927
    -1.0847  -1.0836  -1.0730  -1.0722  -1.0715  -1.0632  -1.0576  -1.0465
    -1.0445  -1.0375  -1.0370  -1.0269  -1.0203  -1.0150  -1.0116  -0.9745
    -0.9736  -0.9680  -0.9657  -0.9642  -0.9560  -0.9266  -0.9100  -0.9097
    -0.9080  -0.9063  -0.9016  -0.8981  -0.8966  -0.8830  -0.8740  -0.8482
    -0.8399  -0.8393  -0.8330  -0.8165  -0.8155  -0.8066  -0.7772  -0.7695
    -0.7418  -0.7411  -0.7141  -0.7135  -0.7102  -0.7094  -0.7081  -0.7033
    -0.6993  -0.6966  -0.6948  -0.6946  -0.6631  -0.6626  -0.6462  -0.6423
    -0.6397  -0.6390  -0.6370  -0.6186  -0.6094  -0.3441  -0.3321  -0.2807
    -0.2552  -0.2343  -0.0779  -0.0118  -0.0108   0.0301   0.3069   0.3153
     0.6328   0.6535   0.7366   0.7374   0.7759   0.7812   0.9181   0.9372
     1.0459   1.0486   1.1373   1.7314   1.7512   1.7525   1.7900   1.7959
     1.8271   1.8496   1.9177   1.9374   2.1271   2.1327   2.3608   2.4374
     2.4584   2.4602   2.8291   2.8511   2.9134   2.9161   2.9209   2.9255
     3.0719   3.0740   3.0858   3.2079   3.2224   3.4450   3.4525   3.5821
     3.6073   3.6223   3.8754   3.8850   3.9604   4.0022   4.0137   4.0216
     4.0548   4.1978   4.2013   4.4357   4.4378   4.4914   4.5236   4.5964
     4.6472   4.6488   4.6639   4.7165   4.8632   5.3892   5.4222   5.4398
     5.5624   5.5798   5.6110   5.6712   5.7560   5.7576   5.7705   5.8708
     5.8735   5.9271   5.9279   5.9662   5.9921   6.0386   6.0769   6.1581
     6.1973   6.2102   6.2369   6.2501   6.2569   6.2644   6.2706   6.2858

          k = 0.2500 0.2500-0.2500 (167588 PWs)   bands (ev):

   -20.3236  -8.1001  -6.6926  -6.1646  -6.1639  -5.7350  -5.3431  -5.2411
    -5.2319  -5.0752  -5.0350  -5.0191  -4.9190  -4.8714  -4.8383  -4.7996
    -4.7387  -4.6576  -4.6519  -4.6149  -4.6075  -4.4547  -4.4369  -4.4356
    -4.4335  -4.4291  -4.3736  -4.3709  -4.3623  -4.3583  -4.3242  -4.3132
    -4.3029  -4.2696  -4.2657  -4.2362  -4.2350  -4.1841  -4.1826  -4.1733
    -4.1708  -4.1654  -4.1522  -4.1503  -4.1115  -4.0929  -4.0926  -4.0864
    -4.0849  -4.0534  -4.0037  -3.9893  -3.9878  -3.9855  -3.9828  -3.9742
    -3.9716  -3.9705  -3.9683  -3.9078  -3.9060  -3.8569  -3.8512  -3.8436
    -3.8178  -3.8176  -3.7966  -3.7942  -3.7918  -3.7907  -3.7877  -3.7386
    -3.7364  -3.7257  -3.7245  -3.6211  -3.6186  -3.6145  -3.6109  -3.5751
    -3.5704  -3.5523  -3.5238  -3.5206  -3.4948  -3.4914  -3.4730  -3.4723
    -3.4598  -3.4589  -3.4040  -3.4025  -3.3896  -3.3688  -3.3611  -3.3569
    -3.3566  -3.3562  -3.3291  -3.3288  -3.2933  -3.2890  -3.2715  -3.2701
    -3.2386  -3.2364  -3.2191  -3.1930  -3.1903  -3.1533  -3.1531  -3.1172
    -3.1089  -3.1088  -3.0959  -3.0949  -3.0898  -3.0882  -3.0537  -3.0411
    -3.0017  -3.0005  -2.9918  -2.9832  -2.9819  -2.9780  -2.9571  -2.9567
    -2.9362  -2.9356  -2.9336  -2.9096  -2.9081  -2.9004  -2.8991  -2.8960
    -2.8619  -2.8580  -2.8225  -2.8221  -2.8202  -2.8185  -2.8177  -2.7378
    -2.7284  -2.7250  -2.7246  -2.7236  -2.7229  -2.7203  -2.7170  -2.7165
    -2.7160  -2.7070  -2.6990  -2.6869  -2.6834  -2.6791  -2.6748  -2.6674
    -2.6646  -2.6221  -2.6208  -2.6201  -2.6176  -2.6152  -2.5988  -2.5973
    -2.5933  -2.5897  -2.5861  -2.5497  -2.5282  -2.5266  -2.5218  -2.5210
    -2.5144  -2.4897  -2.4608  -2.4292  -2.4267  -2.4264  -2.4243  -2.4141
    -2.4054  -2.4045  -2.3977  -2.3883  -2.3611  -2.3597  -2.3520  -2.3513
    -2.3489  -2.3336  -2.3103  -2.3097  -2.3006  -2.3001  -2.2993  -2.2833
    -2.2559  -2.2365  -2.2334  -2.1816  -2.1808  -2.1652  -2.1604  -2.1559
    -2.1458  -2.1087  -2.1071  -2.0836  -2.0702  -2.0536  -2.0529  -2.0499
    -2.0309  -2.0274  -2.0206  -2.0018  -1.9655  -1.9627  -1.9522  -1.9492
    -1.9480  -1.9375  -1.9354  -1.9250  -1.9207  -1.9194  -1.9161  -1.9142
    -1.9116  -1.9109  -1.9003  -1.8995  -1.8821  -1.8810  -1.8800  -1.8726
    -1.8698  -1.8675  -1.8468  -1.8462  -1.8348  -1.8332  -1.8281  -1.8224
    -1.7877  -1.7569  -1.7533  -1.7202  -1.7037  -1.7033  -1.6920  -1.6898
    -1.6698  -1.6684  -1.6544  -1.6533  -1.6530  -1.6511  -1.6470  -1.6368
    -1.6164  -1.6149  -1.6121  -1.5704  -1.5674  -1.5300  -1.5293  -1.4831
    -1.4821  -1.4688  -1.4472  -1.4411  -1.4399  -1.4233  -1.4206  -1.4053
    -1.4046  -1.4005  -1.3998  -1.3992  -1.3983  -1.3926  -1.3911  -1.3739
    -1.3730  -1.3585  -1.3467  -1.3287  -1.3261  -1.3022  -1.3000  -1.2993
    -1.2983  -1.2947  -1.2875  -1.2693  -1.2680  -1.2550  -1.2479  -1.2381
    -1.2322  -1.2176  -1.2110  -1.1876  -1.1869  -1.1799  -1.1758  -1.1436
    -1.1429  -1.1343  -1.1321  -1.1258  -1.1197  -1.1043  -1.1036  -1.0927
    -1.0847  -1.0836  -1.0730  -1.0722  -1.0714  -1.0632  -1.0576  -1.0465
    -1.0445  -1.0375  -1.0370  -1.0269  -1.0203  -1.0150  -1.0116  -0.9745
    -0.9736  -0.9680  -0.9657  -0.9642  -0.9560  -0.9266  -0.9100  -0.9097
    -0.9080  -0.9063  -0.9016  -0.8981  -0.8966  -0.8830  -0.8740  -0.8482
    -0.8399  -0.8393  -0.8330  -0.8165  -0.8155  -0.8066  -0.7772  -0.7695
    -0.7418  -0.7411  -0.7141  -0.7135  -0.7102  -0.7094  -0.7081  -0.7033
    -0.6993  -0.6966  -0.6948  -0.6946  -0.6631  -0.6626  -0.6462  -0.6423
    -0.6397  -0.6390  -0.6370  -0.6186  -0.6094  -0.3441  -0.3321  -0.2807
    -0.2552  -0.2343  -0.0779  -0.0118  -0.0108   0.0301   0.3069   0.3153
     0.6328   0.6535   0.7366   0.7374   0.7759   0.7812   0.9181   0.9373
     1.0459   1.0486   1.1373   1.7314   1.7512   1.7525   1.7900   1.7959
     1.8271   1.8496   1.9177   1.9374   2.1271   2.1327   2.3608   2.4374
     2.4584   2.4602   2.8291   2.8511   2.9134   2.9161   2.9209   2.9255
     3.0719   3.0740   3.0858   3.2079   3.2224   3.4450   3.4525   3.5821
     3.6073   3.6223   3.8754   3.8850   3.9605   4.0022   4.0137   4.0216
     4.0549   4.1978   4.2013   4.4356   4.4378   4.4911   4.5236   4.5958
     4.6472   4.6488   4.6639   4.7165   4.8619   5.3848   5.4116   5.4247
     5.5618   5.5793   5.6431   5.7140   5.7558   5.7571   5.7729   5.8705
     5.8731   5.9275   5.9279   5.9600   5.9717   6.0601   6.0918   6.1664
     6.2109   6.2388   6.2442   6.2518   6.2635   6.2702   6.2834   6.2864

          k =-0.2500-0.2500 0.0833 (167653 PWs)   bands (ev):

   -20.3236  -8.1001  -6.6926  -6.1646  -6.1639  -5.7350  -5.3431  -5.2411
    -5.2319  -5.0752  -5.0350  -5.0192  -4.9190  -4.8714  -4.8383  -4.7996
    -4.7387  -4.6576  -4.6519  -4.6149  -4.6075  -4.4547  -4.4369  -4.4356
    -4.4335  -4.4291  -4.3736  -4.3709  -4.3623  -4.3583  -4.3242  -4.3132
    -4.3029  -4.2696  -4.2657  -4.2362  -4.2350  -4.1841  -4.1826  -4.1733
    -4.1708  -4.1654  -4.1522  -4.1503  -4.1115  -4.0929  -4.0926  -4.0864
    -4.0849  -4.0534  -4.0037  -3.9893  -3.9878  -3.9855  -3.9828  -3.9742
    -3.9716  -3.9705  -3.9682  -3.9078  -3.9060  -3.8569  -3.8512  -3.8436
    -3.8178  -3.8176  -3.7966  -3.7942  -3.7918  -3.7907  -3.7877  -3.7386
    -3.7364  -3.7257  -3.7245  -3.6211  -3.6186  -3.6145  -3.6109  -3.5751
    -3.5704  -3.5523  -3.5238  -3.5206  -3.4948  -3.4914  -3.4730  -3.4723
    -3.4598  -3.4589  -3.4040  -3.4025  -3.3896  -3.3688  -3.3611  -3.3569
    -3.3566  -3.3562  -3.3291  -3.3288  -3.2933  -3.2890  -3.2715  -3.2701
    -3.2386  -3.2364  -3.2191  -3.1930  -3.1903  -3.1533  -3.1531  -3.1172
    -3.1089  -3.1088  -3.0959  -3.0950  -3.0898  -3.0882  -3.0537  -3.0411
    -3.0017  -3.0005  -2.9918  -2.9832  -2.9819  -2.9780  -2.9571  -2.9567
    -2.9362  -2.9356  -2.9336  -2.9096  -2.9081  -2.9004  -2.8991  -2.8960
    -2.8619  -2.8580  -2.8225  -2.8221  -2.8202  -2.8185  -2.8177  -2.7378
    -2.7284  -2.7250  -2.7246  -2.7236  -2.7229  -2.7203  -2.7170  -2.7165
    -2.7160  -2.7070  -2.6990  -2.6869  -2.6834  -2.6791  -2.6749  -2.6674
    -2.6646  -2.6221  -2.6208  -2.6202  -2.6176  -2.6152  -2.5988  -2.5973
    -2.5933  -2.5897  -2.5861  -2.5497  -2.5281  -2.5266  -2.5218  -2.5211
    -2.5144  -2.4897  -2.4608  -2.4292  -2.4267  -2.4264  -2.4243  -2.4141
    -2.4054  -2.4045  -2.3977  -2.3883  -2.3611  -2.3597  -2.3520  -2.3513
    -2.3489  -2.3336  -2.3103  -2.3097  -2.3006  -2.3001  -2.2993  -2.2833
    -2.2559  -2.2365  -2.2334  -2.1816  -2.1808  -2.1652  -2.1604  -2.1559
    -2.1458  -2.1087  -2.1071  -2.0836  -2.0702  -2.0536  -2.0529  -2.0499
    -2.0309  -2.0274  -2.0206  -2.0018  -1.9655  -1.9627  -1.9522  -1.9492
    -1.9480  -1.9375  -1.9354  -1.9250  -1.9207  -1.9194  -1.9161  -1.9142
    -1.9116  -1.9109  -1.9003  -1.8995  -1.8821  -1.8810  -1.8800  -1.8726
    -1.8698  -1.8675  -1.8468  -1.8462  -1.8348  -1.8332  -1.8281  -1.8224
    -1.7877  -1.7569  -1.7533  -1.7202  -1.7037  -1.7033  -1.6920  -1.6898
    -1.6698  -1.6684  -1.6544  -1.6533  -1.6530  -1.6511  -1.6470  -1.6368
    -1.6164  -1.6149  -1.6121  -1.5704  -1.5674  -1.5300  -1.5292  -1.4831
    -1.4821  -1.4688  -1.4472  -1.4411  -1.4399  -1.4233  -1.4206  -1.4053
    -1.4046  -1.4005  -1.3998  -1.3992  -1.3983  -1.3926  -1.3911  -1.3739
    -1.3730  -1.3585  -1.3467  -1.3287  -1.3261  -1.3022  -1.3000  -1.2993
    -1.2983  -1.2947  -1.2875  -1.2693  -1.2680  -1.2550  -1.2479  -1.2381
    -1.2322  -1.2176  -1.2110  -1.1876  -1.1869  -1.1799  -1.1758  -1.1436
    -1.1429  -1.1343  -1.1321  -1.1258  -1.1197  -1.1043  -1.1036  -1.0927
    -1.0847  -1.0836  -1.0730  -1.0722  -1.0715  -1.0632  -1.0576  -1.0465
    -1.0445  -1.0375  -1.0370  -1.0269  -1.0203  -1.0150  -1.0116  -0.9745
    -0.9736  -0.9680  -0.9657  -0.9642  -0.9560  -0.9266  -0.9100  -0.9097
    -0.9080  -0.9063  -0.9016  -0.8981  -0.8966  -0.8830  -0.8740  -0.8482
    -0.8399  -0.8393  -0.8330  -0.8165  -0.8155  -0.8066  -0.7772  -0.7695
    -0.7418  -0.7411  -0.7141  -0.7135  -0.7102  -0.7094  -0.7081  -0.7033
    -0.6993  -0.6966  -0.6948  -0.6946  -0.6631  -0.6626  -0.6462  -0.6423
    -0.6397  -0.6390  -0.6370  -0.6186  -0.6094  -0.3441  -0.3321  -0.2807
    -0.2552  -0.2343  -0.0779  -0.0118  -0.0108   0.0301   0.3069   0.3153
     0.6328   0.6535   0.7366   0.7374   0.7759   0.7812   0.9181   0.9372
     1.0459   1.0486   1.1373   1.7314   1.7512   1.7525   1.7900   1.7959
     1.8271   1.8496   1.9177   1.9374   2.1271   2.1327   2.3608   2.4374
     2.4584   2.4602   2.8291   2.8511   2.9134   2.9161   2.9209   2.9255
     3.0719   3.0740   3.0858   3.2079   3.2224   3.4450   3.4525   3.5821
     3.6073   3.6223   3.8754   3.8850   3.9604   4.0022   4.0137   4.0216
     4.0548   4.1978   4.2013   4.4357   4.4378   4.4914   4.5236   4.5964
     4.6472   4.6488   4.6639   4.7165   4.8632   5.3892   5.4222   5.4397
     5.5625   5.5799   5.6114   5.6710   5.7559   5.7575   5.7705   5.8708
     5.8735   5.9271   5.9279   5.9661   5.9923   6.0371   6.0767   6.1586
     6.1972   6.2109   6.2369   6.2501   6.2568   6.2644   6.2706   6.2858

          k =-0.2500 0.2500-0.0833 (167653 PWs)   bands (ev):

   -20.3236  -8.1001  -6.6926  -6.1645  -6.1640  -5.7350  -5.3431  -5.2405
    -5.2325  -5.0754  -5.0349  -5.0190  -4.9198  -4.8705  -4.8383  -4.7998
    -4.7389  -4.6575  -4.6517  -4.6150  -4.6071  -4.4548  -4.4374  -4.4355
    -4.4332  -4.4291  -4.3736  -4.3709  -4.3628  -4.3578  -4.3242  -4.3139
    -4.3025  -4.2697  -4.2656  -4.2362  -4.2349  -4.1847  -4.1818  -4.1734
    -4.1708  -4.1654  -4.1522  -4.1502  -4.1118  -4.0934  -4.0923  -4.0865
    -4.0848  -4.0537  -4.0040  -3.9897  -3.9874  -3.9857  -3.9821  -3.9738
    -3.9715  -3.9706  -3.9682  -3.9083  -3.9050  -3.8574  -3.8509  -3.8440
    -3.8176  -3.8173  -3.7962  -3.7945  -3.7912  -3.7907  -3.7877  -3.7384
    -3.7364  -3.7262  -3.7242  -3.6216  -3.6188  -3.6151  -3.6111  -3.5752
    -3.5704  -3.5522  -3.5235  -3.5207  -3.4953  -3.4910  -3.4732  -3.4726
    -3.4604  -3.4586  -3.4042  -3.4025  -3.3877  -3.3688  -3.3601  -3.3572
    -3.3570  -3.3562  -3.3296  -3.3289  -3.2926  -3.2890  -3.2714  -3.2710
    -3.2380  -3.2372  -3.2191  -3.1916  -3.1904  -3.1537  -3.1529  -3.1183
    -3.1088  -3.1087  -3.0967  -3.0960  -3.0899  -3.0880  -3.0536  -3.0412
    -3.0012  -3.0008  -2.9918  -2.9829  -2.9825  -2.9778  -2.9572  -2.9566
    -2.9367  -2.9356  -2.9329  -2.9084  -2.9080  -2.9007  -2.8981  -2.8963
    -2.8614  -2.8578  -2.8229  -2.8224  -2.8218  -2.8184  -2.8181  -2.7380
    -2.7290  -2.7254  -2.7241  -2.7229  -2.7225  -2.7187  -2.7170  -2.7166
    -2.7161  -2.7068  -2.6989  -2.6867  -2.6808  -2.6792  -2.6753  -2.6656
    -2.6618  -2.6240  -2.6219  -2.6209  -2.6198  -2.6179  -2.5987  -2.5974
    -2.5911  -2.5896  -2.5861  -2.5451  -2.5284  -2.5246  -2.5217  -2.5194
    -2.5145  -2.4957  -2.4568  -2.4290  -2.4269  -2.4260  -2.4251  -2.4143
    -2.4123  -2.4051  -2.3973  -2.3938  -2.3621  -2.3573  -2.3531  -2.3520
    -2.3490  -2.3385  -2.3120  -2.3099  -2.3012  -2.3002  -2.2991  -2.2931
    -2.2548  -2.2360  -2.2223  -2.1818  -2.1801  -2.1637  -2.1608  -2.1573
    -2.1448  -2.1094  -2.0984  -2.0839  -2.0632  -2.0546  -2.0529  -2.0518
    -2.0304  -2.0279  -2.0207  -2.0018  -1.9659  -1.9625  -1.9496  -1.9485
    -1.9445  -1.9379  -1.9375  -1.9239  -1.9223  -1.9192  -1.9171  -1.9156
    -1.9112  -1.9071  -1.9003  -1.8988  -1.8820  -1.8800  -1.8761  -1.8729
    -1.8702  -1.8693  -1.8468  -1.8455  -1.8345  -1.8338  -1.8293  -1.8204
    -1.7875  -1.7580  -1.7523  -1.7202  -1.7044  -1.7022  -1.6941  -1.6914
    -1.6706  -1.6625  -1.6550  -1.6539  -1.6529  -1.6512  -1.6495  -1.6474
    -1.6168  -1.6150  -1.6115  -1.5714  -1.5663  -1.5305  -1.5297  -1.4832
    -1.4808  -1.4686  -1.4475  -1.4404  -1.4400  -1.4235  -1.4219  -1.4055
    -1.4031  -1.4007  -1.3998  -1.3990  -1.3969  -1.3947  -1.3894  -1.3748
    -1.3736  -1.3578  -1.3470  -1.3291  -1.3284  -1.3018  -1.3008  -1.2988
    -1.2986  -1.2936  -1.2848  -1.2719  -1.2666  -1.2571  -1.2479  -1.2348
    -1.2322  -1.2185  -1.2105  -1.1881  -1.1869  -1.1801  -1.1751  -1.1443
    -1.1408  -1.1347  -1.1315  -1.1272  -1.1188  -1.1041  -1.1031  -1.0933
    -1.0853  -1.0833  -1.0734  -1.0728  -1.0714  -1.0623  -1.0581  -1.0461
    -1.0434  -1.0379  -1.0367  -1.0258  -1.0226  -1.0155  -1.0124  -0.9756
    -0.9723  -0.9666  -0.9657  -0.9651  -0.9561  -0.9267  -0.9111  -0.9087
    -0.9081  -0.9062  -0.9051  -0.8984  -0.8962  -0.8832  -0.8732  -0.8491
    -0.8397  -0.8395  -0.8315  -0.8167  -0.8148  -0.8067  -0.7779  -0.7698
    -0.7423  -0.7405  -0.7140  -0.7136  -0.7101  -0.7096  -0.7080  -0.7031
    -0.6995  -0.6963  -0.6948  -0.6941  -0.6637  -0.6619  -0.6480  -0.6425
    -0.6398  -0.6390  -0.6384  -0.6189  -0.6057  -0.3440  -0.3321  -0.2835
    -0.2526  -0.2343  -0.0759  -0.0125  -0.0093   0.0301   0.3048   0.3173
     0.6303   0.6553   0.7357   0.7390   0.7747   0.7837   0.9143   0.9402
     1.0459   1.0482   1.1383   1.7330   1.7516   1.7522   1.7867   1.7958
     1.8214   1.8532   1.9154   1.9420   2.1255   2.1343   2.3595   2.4348
     2.4585   2.4618   2.8246   2.8497   2.9122   2.9173   2.9201   2.9273
     3.0725   3.0733   3.0823   3.2037   3.2345   3.4444   3.4638   3.5818
     3.6052   3.6234   3.8724   3.8920   3.9815   3.9943   4.0131   4.0173
     4.0412   4.1965   4.2032   4.4372   4.4375   4.4963   4.5200   4.5587
     4.6460   4.6511   4.6586   4.7184   4.9026   5.3585   5.4299   5.4833
     5.5316   5.5934   5.6060   5.6319   5.7542   5.7621   5.7738   5.8678
     5.8749   5.9263   5.9307   5.9720   6.0150   6.0243   6.0988   6.1358
     6.1963   6.2350   6.2451   6.2475   6.2515   6.2619   6.2761   6.2805

          k = 0.2500-0.2500-0.0833 (167653 PWs)   bands (ev):

   -20.3236  -8.1001  -6.6926  -6.1645  -6.1640  -5.7350  -5.3431  -5.2405
    -5.2325  -5.0754  -5.0349  -5.0190  -4.9198  -4.8705  -4.8383  -4.7998
    -4.7389  -4.6575  -4.6517  -4.6150  -4.6071  -4.4548  -4.4374  -4.4355
    -4.4332  -4.4291  -4.3736  -4.3709  -4.3628  -4.3578  -4.3242  -4.3139
    -4.3025  -4.2697  -4.2656  -4.2362  -4.2349  -4.1847  -4.1818  -4.1734
    -4.1708  -4.1654  -4.1522  -4.1502  -4.1118  -4.0934  -4.0923  -4.0865
    -4.0848  -4.0537  -4.0040  -3.9897  -3.9874  -3.9857  -3.9821  -3.9738
    -3.9715  -3.9706  -3.9682  -3.9083  -3.9050  -3.8574  -3.8509  -3.8440
    -3.8176  -3.8173  -3.7962  -3.7945  -3.7912  -3.7907  -3.7877  -3.7384
    -3.7364  -3.7262  -3.7242  -3.6216  -3.6188  -3.6151  -3.6111  -3.5752
    -3.5704  -3.5522  -3.5235  -3.5207  -3.4953  -3.4910  -3.4732  -3.4726
    -3.4604  -3.4586  -3.4042  -3.4025  -3.3877  -3.3688  -3.3601  -3.3572
    -3.3570  -3.3562  -3.3296  -3.3289  -3.2926  -3.2890  -3.2714  -3.2710
    -3.2380  -3.2372  -3.2191  -3.1916  -3.1904  -3.1537  -3.1529  -3.1183
    -3.1088  -3.1087  -3.0967  -3.0960  -3.0899  -3.0880  -3.0536  -3.0412
    -3.0012  -3.0008  -2.9918  -2.9829  -2.9825  -2.9778  -2.9572  -2.9566
    -2.9367  -2.9356  -2.9329  -2.9084  -2.9080  -2.9007  -2.8981  -2.8963
    -2.8614  -2.8578  -2.8229  -2.8224  -2.8218  -2.8184  -2.8181  -2.7380
    -2.7290  -2.7254  -2.7241  -2.7229  -2.7225  -2.7187  -2.7170  -2.7166
    -2.7161  -2.7068  -2.6989  -2.6867  -2.6808  -2.6792  -2.6753  -2.6656
    -2.6618  -2.6240  -2.6219  -2.6209  -2.6198  -2.6179  -2.5987  -2.5974
    -2.5911  -2.5896  -2.5861  -2.5451  -2.5284  -2.5246  -2.5217  -2.5194
    -2.5145  -2.4957  -2.4568  -2.4290  -2.4269  -2.4260  -2.4251  -2.4143
    -2.4123  -2.4051  -2.3973  -2.3938  -2.3621  -2.3573  -2.3531  -2.3520
    -2.3490  -2.3385  -2.3120  -2.3099  -2.3012  -2.3002  -2.2991  -2.2931
    -2.2548  -2.2360  -2.2223  -2.1818  -2.1801  -2.1637  -2.1608  -2.1573
    -2.1448  -2.1094  -2.0984  -2.0839  -2.0632  -2.0546  -2.0529  -2.0518
    -2.0304  -2.0279  -2.0207  -2.0018  -1.9659  -1.9625  -1.9496  -1.9485
    -1.9445  -1.9379  -1.9375  -1.9239  -1.9223  -1.9192  -1.9171  -1.9156
    -1.9112  -1.9071  -1.9003  -1.8988  -1.8820  -1.8800  -1.8761  -1.8729
    -1.8702  -1.8693  -1.8468  -1.8455  -1.8345  -1.8338  -1.8293  -1.8204
    -1.7875  -1.7580  -1.7523  -1.7202  -1.7044  -1.7022  -1.6941  -1.6914
    -1.6706  -1.6625  -1.6550  -1.6539  -1.6529  -1.6512  -1.6495  -1.6474
    -1.6168  -1.6150  -1.6115  -1.5714  -1.5663  -1.5305  -1.5297  -1.4832
    -1.4808  -1.4686  -1.4475  -1.4404  -1.4400  -1.4235  -1.4219  -1.4055
    -1.4031  -1.4007  -1.3998  -1.3990  -1.3969  -1.3947  -1.3894  -1.3748
    -1.3736  -1.3578  -1.3470  -1.3291  -1.3284  -1.3018  -1.3008  -1.2988
    -1.2986  -1.2936  -1.2848  -1.2719  -1.2666  -1.2571  -1.2479  -1.2348
    -1.2322  -1.2185  -1.2105  -1.1881  -1.1869  -1.1801  -1.1751  -1.1443
    -1.1408  -1.1347  -1.1315  -1.1272  -1.1188  -1.1041  -1.1031  -1.0933
    -1.0853  -1.0833  -1.0734  -1.0728  -1.0714  -1.0623  -1.0581  -1.0461
    -1.0434  -1.0379  -1.0367  -1.0258  -1.0226  -1.0155  -1.0124  -0.9756
    -0.9723  -0.9666  -0.9657  -0.9651  -0.9561  -0.9267  -0.9111  -0.9087
    -0.9081  -0.9062  -0.9051  -0.8984  -0.8962  -0.8832  -0.8732  -0.8491
    -0.8397  -0.8395  -0.8315  -0.8167  -0.8148  -0.8067  -0.7779  -0.7698
    -0.7423  -0.7405  -0.7140  -0.7136  -0.7101  -0.7096  -0.7080  -0.7031
    -0.6995  -0.6963  -0.6948  -0.6941  -0.6637  -0.6619  -0.6480  -0.6425
    -0.6398  -0.6390  -0.6384  -0.6189  -0.6057  -0.3440  -0.3321  -0.2835
    -0.2526  -0.2343  -0.0759  -0.0125  -0.0093   0.0301   0.3048   0.3173
     0.6303   0.6553   0.7357   0.7390   0.7747   0.7837   0.9143   0.9402
     1.0459   1.0482   1.1383   1.7330   1.7516   1.7522   1.7867   1.7958
     1.8214   1.8532   1.9154   1.9420   2.1255   2.1343   2.3595   2.4348
     2.4585   2.4618   2.8246   2.8497   2.9122   2.9173   2.9201   2.9273
     3.0725   3.0733   3.0823   3.2037   3.2345   3.4444   3.4638   3.5818
     3.6052   3.6234   3.8724   3.8920   3.9815   3.9943   4.0131   4.0173
     4.0412   4.1965   4.2032   4.4372   4.4375   4.4963   4.5200   4.5587
     4.6460   4.6511   4.6586   4.7184   4.9026   5.3585   5.4299   5.4835
     5.5314   5.5933   5.6058   5.6321   5.7542   5.7621   5.7738   5.8678
     5.8750   5.9263   5.9307   5.9720   6.0150   6.0245   6.0994   6.1351
     6.1963   6.2349   6.2454   6.2472   6.2515   6.2619   6.2761   6.2805

          k =-0.2500 0.2500 0.2500 (167588 PWs)   bands (ev):

   -20.3236  -8.1001  -6.6926  -6.1645  -6.1640  -5.7350  -5.3431  -5.2405
    -5.2325  -5.0754  -5.0349  -5.0190  -4.9198  -4.8705  -4.8383  -4.7998
    -4.7389  -4.6575  -4.6517  -4.6150  -4.6071  -4.4548  -4.4374  -4.4355
    -4.4332  -4.4291  -4.3736  -4.3709  -4.3628  -4.3578  -4.3242  -4.3139
    -4.3025  -4.2697  -4.2656  -4.2362  -4.2350  -4.1847  -4.1818  -4.1735
    -4.1708  -4.1654  -4.1522  -4.1503  -4.1118  -4.0934  -4.0923  -4.0865
    -4.0848  -4.0537  -4.0040  -3.9897  -3.9874  -3.9857  -3.9821  -3.9738
    -3.9715  -3.9706  -3.9682  -3.9083  -3.9050  -3.8574  -3.8509  -3.8440
    -3.8176  -3.8173  -3.7962  -3.7945  -3.7912  -3.7907  -3.7877  -3.7384
    -3.7364  -3.7262  -3.7242  -3.6216  -3.6188  -3.6152  -3.6111  -3.5752
    -3.5704  -3.5522  -3.5235  -3.5207  -3.4953  -3.4910  -3.4732  -3.4726
    -3.4604  -3.4585  -3.4042  -3.4025  -3.3877  -3.3688  -3.3601  -3.3572
    -3.3570  -3.3562  -3.3296  -3.3289  -3.2926  -3.2890  -3.2714  -3.2710
    -3.2380  -3.2371  -3.2191  -3.1916  -3.1904  -3.1537  -3.1529  -3.1183
    -3.1088  -3.1087  -3.0967  -3.0960  -3.0899  -3.0880  -3.0536  -3.0413
    -3.0012  -3.0008  -2.9918  -2.9829  -2.9825  -2.9778  -2.9572  -2.9566
    -2.9367  -2.9356  -2.9329  -2.9084  -2.9080  -2.9007  -2.8981  -2.8963
    -2.8614  -2.8578  -2.8229  -2.8224  -2.8218  -2.8184  -2.8181  -2.7380
    -2.7290  -2.7254  -2.7241  -2.7229  -2.7225  -2.7187  -2.7170  -2.7166
    -2.7161  -2.7068  -2.6989  -2.6867  -2.6808  -2.6792  -2.6753  -2.6656
    -2.6618  -2.6240  -2.6219  -2.6209  -2.6198  -2.6179  -2.5987  -2.5974
    -2.5911  -2.5896  -2.5861  -2.5451  -2.5284  -2.5246  -2.5217  -2.5194
    -2.5145  -2.4957  -2.4568  -2.4290  -2.4269  -2.4260  -2.4251  -2.4143
    -2.4123  -2.4051  -2.3973  -2.3937  -2.3621  -2.3573  -2.3531  -2.3520
    -2.3490  -2.3385  -2.3120  -2.3099  -2.3012  -2.3002  -2.2991  -2.2931
    -2.2548  -2.2360  -2.2223  -2.1818  -2.1801  -2.1637  -2.1608  -2.1573
    -2.1448  -2.1094  -2.0984  -2.0839  -2.0632  -2.0546  -2.0529  -2.0518
    -2.0304  -2.0279  -2.0207  -2.0018  -1.9659  -1.9625  -1.9496  -1.9485
    -1.9445  -1.9379  -1.9375  -1.9239  -1.9223  -1.9192  -1.9171  -1.9156
    -1.9112  -1.9071  -1.9003  -1.8988  -1.8820  -1.8800  -1.8761  -1.8729
    -1.8702  -1.8693  -1.8468  -1.8455  -1.8345  -1.8338  -1.8293  -1.8204
    -1.7876  -1.7580  -1.7523  -1.7202  -1.7044  -1.7022  -1.6941  -1.6913
    -1.6706  -1.6625  -1.6550  -1.6539  -1.6529  -1.6512  -1.6495  -1.6474
    -1.6168  -1.6150  -1.6115  -1.5714  -1.5663  -1.5305  -1.5297  -1.4832
    -1.4808  -1.4686  -1.4475  -1.4404  -1.4400  -1.4235  -1.4220  -1.4055
    -1.4031  -1.4007  -1.3998  -1.3990  -1.3969  -1.3947  -1.3894  -1.3748
    -1.3736  -1.3578  -1.3470  -1.3291  -1.3284  -1.3018  -1.3008  -1.2988
    -1.2986  -1.2936  -1.2848  -1.2719  -1.2666  -1.2571  -1.2479  -1.2348
    -1.2322  -1.2185  -1.2105  -1.1881  -1.1869  -1.1801  -1.1751  -1.1443
    -1.1408  -1.1347  -1.1315  -1.1272  -1.1188  -1.1041  -1.1031  -1.0933
    -1.0853  -1.0833  -1.0734  -1.0728  -1.0714  -1.0623  -1.0581  -1.0461
    -1.0434  -1.0379  -1.0367  -1.0258  -1.0226  -1.0155  -1.0124  -0.9756
    -0.9723  -0.9666  -0.9657  -0.9651  -0.9561  -0.9267  -0.9111  -0.9087
    -0.9081  -0.9062  -0.9051  -0.8984  -0.8962  -0.8832  -0.8732  -0.8491
    -0.8397  -0.8395  -0.8315  -0.8167  -0.8148  -0.8067  -0.7779  -0.7698
    -0.7423  -0.7404  -0.7140  -0.7136  -0.7101  -0.7096  -0.7080  -0.7031
    -0.6995  -0.6963  -0.6948  -0.6941  -0.6637  -0.6619  -0.6480  -0.6425
    -0.6398  -0.6390  -0.6384  -0.6189  -0.6057  -0.3440  -0.3321  -0.2835
    -0.2525  -0.2343  -0.0759  -0.0125  -0.0093   0.0301   0.3048   0.3173
     0.6303   0.6553   0.7357   0.7390   0.7747   0.7837   0.9143   0.9402
     1.0459   1.0482   1.1383   1.7330   1.7516   1.7522   1.7867   1.7958
     1.8214   1.8532   1.9154   1.9420   2.1255   2.1343   2.3595   2.4348
     2.4585   2.4618   2.8246   2.8497   2.9122   2.9173   2.9201   2.9273
     3.0725   3.0733   3.0823   3.2037   3.2345   3.4444   3.4638   3.5818
     3.6052   3.6234   3.8724   3.8920   3.9816   3.9944   4.0131   4.0173
     4.0413   4.1965   4.2032   4.4372   4.4375   4.4959   4.5200   4.5583
     4.6460   4.6511   4.6586   4.7184   4.9009   5.3574   5.4102   5.4735
     5.5260   5.5917   5.6018   5.7371   5.7535   5.7555   5.7765   5.8673
     5.8755   5.9262   5.9305   5.9712   5.9779   6.0369   6.0790   6.2057
     6.2135   6.2265   6.2475   6.2531   6.2614   6.2638   6.2762   6.2808

     the Fermi energy is     0.9986 ev

!    total energy              =   -7425.29318183 Ry
     Harris-Foulkes estimate   =   -7425.29318187 Ry
     estimated scf accuracy    <          9.0E-09 Ry

     The total energy is the sum of the following terms:

     one-electron contribution =  -48826.86640763 Ry
     hartree contribution      =   24967.80302504 Ry
     xc contribution           =   -3604.22932968 Ry
     ewald contribution        =   20038.00222972 Ry
     smearing contrib. (-TS)   =      -0.00269928 Ry

     convergence has been achieved in  27 iterations

     Writing output data file 6542079.save

     init_run     :     97.91s CPU    104.53s WALL (       1 calls)
     electrons    :   5497.30s CPU   5883.71s WALL (       1 calls)

     Called by init_run:
     wfcinit      :     71.64s CPU     77.42s WALL (       1 calls)
     potinit      :      5.27s CPU      5.67s WALL (       1 calls)

     Called by electrons:
     c_bands      :   4434.75s CPU   4739.35s WALL (      28 calls)
     sum_band     :    726.53s CPU    792.92s WALL (      28 calls)
     v_of_rho     :     71.56s CPU     80.25s WALL (      28 calls)
     newd         :    275.92s CPU    279.81s WALL (      28 calls)
     mix_rho      :      2.11s CPU      2.38s WALL (      28 calls)
     vdW_energy   :      7.50s CPU      8.04s WALL (      28 calls)
     vdW_ffts     :     31.76s CPU     36.36s WALL (      56 calls)
     vdW_v        :      7.98s CPU      8.69s WALL (      28 calls)

     Called by c_bands:
     init_us_2    :     12.84s CPU     13.08s WALL (     342 calls)
     cegterg      :   4306.50s CPU   4604.37s WALL (     168 calls)

     Called by *egterg:
     h_psi        :   1822.77s CPU   2097.78s WALL (     835 calls)
     s_psi        :    216.30s CPU    217.44s WALL (     835 calls)
     g_psi        :      4.67s CPU      4.73s WALL (     661 calls)
     cdiaghg      :   1083.61s CPU   1086.00s WALL (     823 calls)

     Called by h_psi:
     add_vuspsi   :    212.61s CPU    213.92s WALL (     835 calls)

     General routines
     calbec       :    480.34s CPU    481.76s WALL (    1003 calls)
     fft          :     66.34s CPU     74.21s WALL (    1848 calls)
     ffts         :      0.89s CPU      1.14s WALL (      56 calls)
     fftw         :   1277.02s CPU   1550.95s WALL (  449252 calls)
     interpolate  :      2.57s CPU      3.24s WALL (      56 calls)
     davcio       :      0.01s CPU      0.15s WALL (       6 calls)

     Parallel routines
     fft_scatter  :    841.70s CPU   1037.79s WALL (  451156 calls)

     PWSCF        :     1h33m CPU        1h40m WALL


   This run was terminated on:  18:54: 2  24Jun2015            

=------------------------------------------------------------------------------=
   JOB DONE.
=------------------------------------------------------------------------------=
