Setting SGE environment for SCC

     Program PWSCF v.5.1.2 starts on 29Aug2015 at 15:51:48 

     This program is part of the open-source Quantum ESPRESSO suite
     for quantum simulation of materials; please cite
         "P. Giannozzi et al., J. Phys.:Condens. Matter 21 395502 (2009);
          URL http://www.quantum-espresso.org", 
     in publications or presentations arising from this work. More details at
     http://www.quantum-espresso.org/quote

     Parallel version (MPI), running on    32 processors
     R & G space division:  proc/nbgrp/npool/nimage =      32
     Reading input from top.O1.Au62.d.3.2.phi.0.psi.0.in
Warning: card &IONS ignored
Warning: card / ignored
Warning: card &CELL ignored
Warning: card / ignored

     Current dimensions of program PWSCF are:
     Max number of different atomic species (ntypx) = 10
     Max number of k-points (npk) =  40000
     Max angular momentum in pseudopotentials (lmaxx) =  3

     IMPORTANT: XC functional enforced from input :
     Exchange-correlation      = VDW-DF ( 1  4  4  0 1 0)
     Any further DFT definition will be discarded
     Please, verify this is what you really want


     Subspace diagonalization in iterative solution of the eigenvalue problem:
     a serial algorithm will be used


     Parallelization info
     --------------------
     sticks:   dense  smooth     PW     G-vecs:    dense   smooth      PW
     Min         578     289     74               118518    41891    5486
     Max         579     290     75               118533    41932    5497
     Sum       18505    9265   2385              3792731  1341081  175711


     Title: 
     top.O1.Au62.d.3.2.phi.0.psi.0                                              


     bravais-lattice index     =            8
     lattice parameter (alat)  =      24.1233  a.u.
     unit-cell volume          =   28076.2361 (a.u.)^3
     number of atoms/cell      =           75
     number of atomic types    =            3
     number of electrons       =       800.00
     number of Kohn-Sham states=          480
     kinetic-energy cutoff     =      50.0000  Ry
     charge density cutoff     =     400.0000  Ry
     convergence threshold     =      1.0E-08
     mixing beta               =       0.7000
     number of iterations used =            8  plain     mixing
     Exchange-correlation      = VDW-DF ( 1  4  4  0 1 0)

     celldm(1)=  24.123277  celldm(2)=   1.000000  celldm(3)=   2.000000
     celldm(4)=   0.000000  celldm(5)=   0.000000  celldm(6)=   0.000000

     crystal axes: (cart. coord. in units of alat)
               a(1) = (   1.000000   0.000000   0.000000 )  
               a(2) = (   0.000000   1.000000   0.000000 )  
               a(3) = (   0.000000   0.000000   2.000000 )  

     reciprocal axes: (cart. coord. in units 2 pi/alat)
               b(1) = (  1.000000  0.000000  0.000000 )  
               b(2) = (  0.000000  1.000000  0.000000 )  
               b(3) = (  0.000000  0.000000  0.500000 )  


     PseudoPot. # 1 for Au read from file:
     /home/scc/andrejb/qe/pseudo/Au.pbe-nd-van.UPF
     MD5 check sum: 458681b50f36d87ef23c61b04bba420a
     Pseudo is Ultrasoft + core correction, Zval = 11.0
     Generated by new atomic code, or converted to UPF format
     Using radial grid of  985 points,  3 beta functions with: 
                l(1) =   1
                l(2) =   2
                l(3) =   2
     Q(r) pseudized with  8 coefficients,  rinner =    1.100   1.100   1.100
                                                       1.100   1.100

     PseudoPot. # 2 for H  read from file:
     /home/scc/andrejb/qe/pseudo/H.pbe-van_ak.UPF
     MD5 check sum: 403db7282739603aa925980fa9b8608d
     Pseudo is Ultrasoft, Zval =  1.0
     Generated by new atomic code, or converted to UPF format
     Using radial grid of  615 points,  1 beta functions with: 
                l(1) =   0
     Q(r) pseudized with  8 coefficients,  rinner =    0.800

     PseudoPot. # 3 for O  read from file:
     /home/scc/andrejb/qe/pseudo/O.pbe-van_ak.UPF
     MD5 check sum: 4b8c549914a63cae506c6ff22b5af4fe
     Pseudo is Ultrasoft, Zval =  6.0
     Generated by new atomic code, or converted to UPF format
     Using radial grid of  737 points,  4 beta functions with: 
                l(1) =   0
                l(2) =   0
                l(3) =   1
                l(4) =   1
     Q(r) pseudized with  8 coefficients,  rinner =    0.800   0.800   0.800


     vdW kernel table read from file vdW_kernel_table
     MD5 check sum: 48e77a2e26edf626eeb0eaa751ad5cac

     atomic species   valence    mass     pseudopotential
        Au            11.00   196.96657     Au( 1.00)
        H              1.00     1.01000     H ( 1.00)
        O              6.00    16.00000     O ( 1.00)

     No symmetry found



   Cartesian axes

     site n.     atom                  positions (alat units)
         1           O   tau(   1) = (   0.4998324   0.3332216   0.7499944  )
         2           H   tau(   2) = (   0.4527548   0.2940501   0.7954883  )
         3           H   tau(   3) = (   0.5454827   0.3712233   0.7978521  )
         4           Au  tau(   4) = (   0.0000000   0.0000000   0.0000000  )
         5           Au  tau(   5) = (   0.3332217   0.0000000   0.0000000  )
         6           Au  tau(   6) = (   0.6664434   0.0000000   0.0000000  )
         7           Au  tau(   7) = (   0.1666109   0.1666109   0.0000000  )
         8           Au  tau(   8) = (   0.4998326   0.1666109   0.0000000  )
         9           Au  tau(   9) = (   0.8330542   0.1666109   0.0000000  )
        10           Au  tau(  10) = (   0.0000000   0.3332217   0.0000000  )
        11           Au  tau(  11) = (   0.3332217   0.3332217   0.0000000  )
        12           Au  tau(  12) = (   0.6664434   0.3332217   0.0000000  )
        13           Au  tau(  13) = (   0.1666109   0.4998326   0.0000000  )
        14           Au  tau(  14) = (   0.4998326   0.4998326   0.0000000  )
        15           Au  tau(  15) = (   0.8330542   0.4998326   0.0000000  )
        16           Au  tau(  16) = (   0.0000000   0.6664434   0.0000000  )
        17           Au  tau(  17) = (   0.3332217   0.6664434   0.0000000  )
        18           Au  tau(  18) = (   0.6664434   0.6664434   0.0000000  )
        19           Au  tau(  19) = (   0.1666109   0.8330542   0.0000000  )
        20           Au  tau(  20) = (   0.4998326   0.8330542   0.0000000  )
        21           Au  tau(  21) = (   0.8330542   0.8330542   0.0000000  )
        22           Au  tau(  22) = (   0.1666109   0.0000000   0.1666109  )
        23           Au  tau(  23) = (   0.4998326   0.0000000   0.1666109  )
        24           Au  tau(  24) = (   0.8330542   0.0000000   0.1666109  )
        25           Au  tau(  25) = (   0.0000000   0.1666109   0.1666109  )
        26           Au  tau(  26) = (   0.3332217   0.1666109   0.1666109  )
        27           Au  tau(  27) = (   0.6664434   0.1666109   0.1666109  )
        28           Au  tau(  28) = (   0.1666109   0.3332217   0.1666109  )
        29           Au  tau(  29) = (   0.4998326   0.3332217   0.1666109  )
        30           Au  tau(  30) = (   0.8330542   0.3332217   0.1666109  )
        31           Au  tau(  31) = (   0.0000000   0.4998326   0.1666109  )
        32           Au  tau(  32) = (   0.3332217   0.4998326   0.1666109  )
        33           Au  tau(  33) = (   0.6664434   0.4998326   0.1666109  )
        34           Au  tau(  34) = (   0.1666109   0.6664434   0.1666109  )
        35           Au  tau(  35) = (   0.4998326   0.6664434   0.1666109  )
        36           Au  tau(  36) = (   0.8330542   0.6664434   0.1666109  )
        37           Au  tau(  37) = (   0.0000000   0.8330542   0.1666109  )
        38           Au  tau(  38) = (   0.3332217   0.8330542   0.1666109  )
        39           Au  tau(  39) = (   0.6664434   0.8330542   0.1666109  )
        40           Au  tau(  40) = (  -0.0000182  -0.0000182   0.3335478  )
        41           Au  tau(  41) = (   0.3332215  -0.0000181   0.3335473  )
        42           Au  tau(  42) = (   0.6664447  -0.0000183   0.3335481  )
        43           Au  tau(  43) = (  -0.0000181   0.3332215   0.3335473  )
        44           Au  tau(  44) = (   0.3332215   0.3332215   0.3335468  )
        45           Au  tau(  45) = (   0.6664445   0.3332215   0.3335477  )
        46           Au  tau(  46) = (  -0.0000183   0.6664447   0.3335481  )
        47           Au  tau(  47) = (   0.3332215   0.6664445   0.3335477  )
        48           Au  tau(  48) = (   0.6664446   0.6664446   0.3335486  )
        49           Au  tau(  49) = (   0.1666097   0.1666097   0.3335483  )
        50           Au  tau(  50) = (   0.4998320   0.1666098   0.3335477  )
        51           Au  tau(  51) = (   0.8330732   0.1666096   0.3335480  )
        52           Au  tau(  52) = (   0.1666098   0.4998320   0.3335477  )
        53           Au  tau(  53) = (   0.4998322   0.4998322   0.3335470  )
        54           Au  tau(  54) = (   0.8330731   0.4998322   0.3335474  )
        55           Au  tau(  55) = (   0.1666096   0.8330732   0.3335480  )
        56           Au  tau(  56) = (   0.4998322   0.8330731   0.3335474  )
        57           Au  tau(  57) = (   0.8330731   0.8330731   0.3335478  )
        58           Au  tau(  58) = (   0.1666104  -0.0000111   0.4993095  )
        59           Au  tau(  59) = (   0.4998323  -0.0000112   0.4993099  )
        60           Au  tau(  60) = (   0.8330660  -0.0000111   0.4993009  )
        61           Au  tau(  61) = (  -0.0000111   0.1666104   0.4993095  )
        62           Au  tau(  62) = (   0.3332213   0.1666106   0.4993185  )
        63           Au  tau(  63) = (   0.6664437   0.1666106   0.4993187  )
        64           Au  tau(  64) = (   0.1666106   0.3332213   0.4993185  )
        65           Au  tau(  65) = (   0.4998324   0.3332216   0.4993185  )
        66           Au  tau(  66) = (   0.8330658   0.3332215   0.4993102  )
        67           Au  tau(  67) = (  -0.0000112   0.4998323   0.4993099  )
        68           Au  tau(  68) = (   0.3332216   0.4998324   0.4993185  )
        69           Au  tau(  69) = (   0.6664437   0.4998325   0.4993187  )
        70           Au  tau(  70) = (   0.1666106   0.6664437   0.4993187  )
        71           Au  tau(  71) = (   0.4998325   0.6664437   0.4993187  )
        72           Au  tau(  72) = (   0.8330658   0.6664438   0.4993102  )
        73           Au  tau(  73) = (  -0.0000111   0.8330660   0.4993009  )
        74           Au  tau(  74) = (   0.3332215   0.8330658   0.4993102  )
        75           Au  tau(  75) = (   0.6664438   0.8330658   0.4993102  )

     number of k points=     6  Marzari-Vanderbilt smearing, width (Ry)=  0.0200
                       cart. coord. in units 2pi/alat
        k(    1) = (   0.2500000   0.2500000   0.0833333), wk =   0.3333333
        k(    2) = (   0.2500000   0.2500000  -0.2500000), wk =   0.3333333
        k(    3) = (  -0.2500000  -0.2500000   0.0833333), wk =   0.3333333
        k(    4) = (  -0.2500000   0.2500000  -0.0833333), wk =   0.3333333
        k(    5) = (   0.2500000  -0.2500000  -0.0833333), wk =   0.3333333
        k(    6) = (  -0.2500000   0.2500000   0.2500000), wk =   0.3333333

     Dense  grid:  3792731 G-vectors     FFT dimensions: ( 160, 160, 320)

     Smooth grid:  1341081 G-vectors     FFT dimensions: ( 120, 120, 225)

     Largest allocated arrays     est. size (Mb)     dimensions
        Kohn-Sham Wavefunctions        38.58 Mb     (    5267,  480)
        NL pseudopotentials            76.03 Mb     (    5267,  946)
        Each V/rho on FFT grid          3.91 Mb     (  256000)
        Each G-vector array             0.90 Mb     (  118520)
        G-vector shells                 0.08 Mb     (   10286)
     Largest temporary arrays     est. size (Mb)     dimensions
        Auxiliary wavefunctions       154.31 Mb     (    5267, 1920)
        Each subspace H/S matrix       56.25 Mb     (    1920, 1920)
        Each <psi_i|beta_j> matrix      6.93 Mb     (     946,  480)
        Arrays for rho mixing          31.25 Mb     (  256000,    8)

     Initial potential from superposition of free atoms
     Check: negative starting charge=   -1.945030

     starting charge  799.16392, renormalised to  800.00000

     negative rho (up, down):  1.947E+00 0.000E+00


     ************************************************************************
     *
     * You are using vdW-DF for exchange-correlation in this calculation.
     * Please cite the following three references that made this development
     * possible:
     *
     *   M. Dion, H. Rydberg, E. Schroder, D. C. Langreth, and
     *   B. I. Lundqvist, Phys. Rev. Lett. 92, 246401 (2004).
     *
     *   T. Thonhauser, V. R. Cooper, S. Li, A. Puzder, P. Hyldgaard, and
     *   D. C. Langreth, Phys. Rev. B 76, 125112 (2007).
     *
     *   G. Roman-Perez and J. M. Soler, Phys. Rev. Lett. 103, 096102 (2009).
     *
     *
     * If you are using vdW-DF2, please also cite:
     *
     *   K. Lee, E. D. Murray, L. Kong, B. I. Lundqvist, and
     *   D. C. Langreth, Phys. Rev. B 82, 081101(R) (2010).
     *
     *
     * If you are calculating the stress with vdW-DF, please also cite:
     *
     *   R. Sabatini, E. Kucukbenli, B. Kolb, T. Thonhauser, and
     *   S. de Gironcoli, J. Phys.: Condens. Matter 24, 424209 (2012).
     *
     ************************************************************************

     Carrying out vdW-DF run using the following parameters:

     Nqs =      20    Nr_points =    1024   r_max =   100.000
     q_mesh =
               0.00001000     0.04494208     0.09755937     0.15916263
               0.23128650     0.31572767     0.41458969     0.53033537
               0.66584808     0.82450364     1.01025438     1.22772762
               1.48234092     1.78043706     2.12944203     2.53805004
               3.01644009     3.57652955     4.23227104     5.00000000

     Gradients computed in reciprocal space

     ************************************************************************


     Starting wfc are  654 randomized atomic wfcs

     total cpu time spent up to now is      130.5 secs

     Self-consistent Calculation

     iteration #  1     ecut=    50.00 Ry     beta=0.70
     Davidson diagonalization with overlap
     ethr =  1.00E-02,  avg # of iterations =  3.0

     Threshold (ethr) on eigenvalues was too large:
     Diagonalizing with lowered threshold

     Davidson diagonalization with overlap
     ethr =  4.29E-04,  avg # of iterations =  2.5

     negative rho (up, down):  1.947E+00 0.000E+00

     total cpu time spent up to now is      619.9 secs

     total energy              =   -7423.00387204 Ry
     Harris-Foulkes estimate   =   -7426.09360270 Ry
     estimated scf accuracy    <       3.81213969 Ry

     iteration #  2     ecut=    50.00 Ry     beta=0.70
     Davidson diagonalization with overlap
     ethr =  4.77E-04,  avg # of iterations = 11.3

     negative rho (up, down):  1.941E+00 0.000E+00

     total cpu time spent up to now is     1463.6 secs

     total energy              =   -7414.55495391 Ry
     Harris-Foulkes estimate   =   -7432.78552839 Ry
     estimated scf accuracy    <      96.54731270 Ry

     iteration #  3     ecut=    50.00 Ry     beta=0.70
     Davidson diagonalization with overlap
     ethr =  4.77E-04,  avg # of iterations =  6.0

     negative rho (up, down):  1.951E+00 0.000E+00

     total cpu time spent up to now is     1959.6 secs

     total energy              =   -7424.07142240 Ry
     Harris-Foulkes estimate   =   -7425.88164519 Ry
     estimated scf accuracy    <       7.71431282 Ry

     iteration #  4     ecut=    50.00 Ry     beta=0.70
     Davidson diagonalization with overlap
     ethr =  4.77E-04,  avg # of iterations =  5.5

     negative rho (up, down):  1.954E+00 0.000E+00

     total cpu time spent up to now is     2233.2 secs

     total energy              =   -7424.82069180 Ry
     Harris-Foulkes estimate   =   -7425.67541870 Ry
     estimated scf accuracy    <       4.73918960 Ry

     iteration #  5     ecut=    50.00 Ry     beta=0.70
     Davidson diagonalization with overlap
     ethr =  4.77E-04,  avg # of iterations =  5.3

     negative rho (up, down):  1.962E+00 0.000E+00

     total cpu time spent up to now is     2572.1 secs

     total energy              =   -7425.08418316 Ry
     Harris-Foulkes estimate   =   -7425.58051726 Ry
     estimated scf accuracy    <       3.81742078 Ry

     iteration #  6     ecut=    50.00 Ry     beta=0.70
     Davidson diagonalization with overlap
     ethr =  4.77E-04,  avg # of iterations =  2.3

     negative rho (up, down):  1.966E+00 0.000E+00

     total cpu time spent up to now is     2825.0 secs

     total energy              =   -7425.28544058 Ry
     Harris-Foulkes estimate   =   -7425.33191119 Ry
     estimated scf accuracy    <       0.15362270 Ry

     iteration #  7     ecut=    50.00 Ry     beta=0.70
     Davidson diagonalization with overlap
     ethr =  1.92E-05,  avg # of iterations =  8.8

     negative rho (up, down):  1.969E+00 0.000E+00

     total cpu time spent up to now is     3179.8 secs

     total energy              =   -7425.28670661 Ry
     Harris-Foulkes estimate   =   -7425.32439398 Ry
     estimated scf accuracy    <       0.17300248 Ry

     iteration #  8     ecut=    50.00 Ry     beta=0.70
     Davidson diagonalization with overlap
     ethr =  1.92E-05,  avg # of iterations =  3.2

     negative rho (up, down):  1.970E+00 0.000E+00

     total cpu time spent up to now is     3461.5 secs

     total energy              =   -7425.29079952 Ry
     Harris-Foulkes estimate   =   -7425.31095747 Ry
     estimated scf accuracy    <       0.08778498 Ry

     iteration #  9     ecut=    50.00 Ry     beta=0.70
     Davidson diagonalization with overlap
     ethr =  1.10E-05,  avg # of iterations =  5.7

     negative rho (up, down):  1.972E+00 0.000E+00

     total cpu time spent up to now is     3768.4 secs

     total energy              =   -7425.29286416 Ry
     Harris-Foulkes estimate   =   -7425.30449388 Ry
     estimated scf accuracy    <       0.04470545 Ry

     iteration # 10     ecut=    50.00 Ry     beta=0.70
     Davidson diagonalization with overlap
     ethr =  5.59E-06,  avg # of iterations =  6.5

     negative rho (up, down):  1.972E+00 0.000E+00

     total cpu time spent up to now is     4077.8 secs

     total energy              =   -7425.29527357 Ry
     Harris-Foulkes estimate   =   -7425.29839540 Ry
     estimated scf accuracy    <       0.00928045 Ry

     iteration # 11     ecut=    50.00 Ry     beta=0.70
     Davidson diagonalization with overlap
     ethr =  1.16E-06,  avg # of iterations = 10.8

     negative rho (up, down):  1.973E+00 0.000E+00

     total cpu time spent up to now is     4436.2 secs

     total energy              =   -7425.29579298 Ry
     Harris-Foulkes estimate   =   -7425.29691736 Ry
     estimated scf accuracy    <       0.00403645 Ry

     iteration # 12     ecut=    50.00 Ry     beta=0.70
     Davidson diagonalization with overlap
     ethr =  5.05E-07,  avg # of iterations =  4.0

     negative rho (up, down):  1.974E+00 0.000E+00

     total cpu time spent up to now is     4691.1 secs

     total energy              =   -7425.29526338 Ry
     Harris-Foulkes estimate   =   -7425.29623916 Ry
     estimated scf accuracy    <       0.00139201 Ry

     iteration # 13     ecut=    50.00 Ry     beta=0.70
     Davidson diagonalization with overlap
     ethr =  1.74E-07,  avg # of iterations =  8.8

     negative rho (up, down):  1.974E+00 0.000E+00

     total cpu time spent up to now is     5186.6 secs

     total energy              =   -7425.29478239 Ry
     Harris-Foulkes estimate   =   -7425.29669431 Ry
     estimated scf accuracy    <       0.00789067 Ry

     iteration # 14     ecut=    50.00 Ry     beta=0.70
     Davidson diagonalization with overlap
     ethr =  1.74E-07,  avg # of iterations =  3.0

     negative rho (up, down):  1.974E+00 0.000E+00

     total cpu time spent up to now is     5495.9 secs

     total energy              =   -7425.29559068 Ry
     Harris-Foulkes estimate   =   -7425.29581783 Ry
     estimated scf accuracy    <       0.00091488 Ry

     iteration # 15     ecut=    50.00 Ry     beta=0.70
     Davidson diagonalization with overlap
     ethr =  1.14E-07,  avg # of iterations =  2.0

     negative rho (up, down):  1.974E+00 0.000E+00

     total cpu time spent up to now is     5732.5 secs

     total energy              =   -7425.29565090 Ry
     Harris-Foulkes estimate   =   -7425.29578891 Ry
     estimated scf accuracy    <       0.00066943 Ry

     iteration # 16     ecut=    50.00 Ry     beta=0.70
     Davidson diagonalization with overlap
     ethr =  8.37E-08,  avg # of iterations =  2.0

     negative rho (up, down):  1.974E+00 0.000E+00

     total cpu time spent up to now is     5986.3 secs

     total energy              =   -7425.29564751 Ry
     Harris-Foulkes estimate   =   -7425.29582776 Ry
     estimated scf accuracy    <       0.00151179 Ry

     iteration # 17     ecut=    50.00 Ry     beta=0.70
     Davidson diagonalization with overlap
     ethr =  8.37E-08,  avg # of iterations =  1.0

     negative rho (up, down):  1.974E+00 0.000E+00

     total cpu time spent up to now is     6216.5 secs

     total energy              =   -7425.29573196 Ry
     Harris-Foulkes estimate   =   -7425.29574677 Ry
     estimated scf accuracy    <       0.00004728 Ry

     iteration # 18     ecut=    50.00 Ry     beta=0.70
     Davidson diagonalization with overlap
     ethr =  5.91E-09,  avg # of iterations =  2.0

     negative rho (up, down):  1.974E+00 0.000E+00

     total cpu time spent up to now is     6454.6 secs

     total energy              =   -7425.29573920 Ry
     Harris-Foulkes estimate   =   -7425.29574200 Ry
     estimated scf accuracy    <       0.00001023 Ry

     iteration # 19     ecut=    50.00 Ry     beta=0.70
     Davidson diagonalization with overlap
     ethr =  1.28E-09,  avg # of iterations =  2.0

     negative rho (up, down):  1.974E+00 0.000E+00

     total cpu time spent up to now is     6714.0 secs

     total energy              =   -7425.29573967 Ry
     Harris-Foulkes estimate   =   -7425.29574217 Ry
     estimated scf accuracy    <       0.00001172 Ry

     iteration # 20     ecut=    50.00 Ry     beta=0.70
     Davidson diagonalization with overlap
     ethr =  1.28E-09,  avg # of iterations =  2.0

     negative rho (up, down):  1.974E+00 0.000E+00

     total cpu time spent up to now is     6943.5 secs

     total energy              =   -7425.29574079 Ry
     Harris-Foulkes estimate   =   -7425.29574166 Ry
     estimated scf accuracy    <       0.00000400 Ry

     iteration # 21     ecut=    50.00 Ry     beta=0.70
     Davidson diagonalization with overlap
     ethr =  5.00E-10,  avg # of iterations =  2.0

     negative rho (up, down):  1.974E+00 0.000E+00

     total cpu time spent up to now is     7167.0 secs

     total energy              =   -7425.29574137 Ry
     Harris-Foulkes estimate   =   -7425.29574152 Ry
     estimated scf accuracy    <       0.00000120 Ry

     iteration # 22     ecut=    50.00 Ry     beta=0.70
     Davidson diagonalization with overlap
     ethr =  1.51E-10,  avg # of iterations =  3.0

     negative rho (up, down):  1.974E+00 0.000E+00

     total cpu time spent up to now is     7396.2 secs

     total energy              =   -7425.29574154 Ry
     Harris-Foulkes estimate   =   -7425.29574161 Ry
     estimated scf accuracy    <       0.00000031 Ry

     iteration # 23     ecut=    50.00 Ry     beta=0.70
     Davidson diagonalization with overlap
     ethr =  3.88E-11,  avg # of iterations =  3.0

     negative rho (up, down):  1.974E+00 0.000E+00

     total cpu time spent up to now is     7645.3 secs

     total energy              =   -7425.29574158 Ry
     Harris-Foulkes estimate   =   -7425.29574161 Ry
     estimated scf accuracy    <       0.00000011 Ry

     iteration # 24     ecut=    50.00 Ry     beta=0.70
     Davidson diagonalization with overlap
     ethr =  1.40E-11,  avg # of iterations =  2.0

     negative rho (up, down):  1.974E+00 0.000E+00

     total cpu time spent up to now is     7883.9 secs

     total energy              =   -7425.29574163 Ry
     Harris-Foulkes estimate   =   -7425.29574162 Ry
     estimated scf accuracy    <       0.00000012 Ry

     iteration # 25     ecut=    50.00 Ry     beta=0.70
     Davidson diagonalization with overlap
     ethr =  1.40E-11,  avg # of iterations =  2.0

     negative rho (up, down):  1.974E+00 0.000E+00

     total cpu time spent up to now is     8108.1 secs

     total energy              =   -7425.29574165 Ry
     Harris-Foulkes estimate   =   -7425.29574165 Ry
     estimated scf accuracy    <       0.00000006 Ry

     iteration # 26     ecut=    50.00 Ry     beta=0.70
     Davidson diagonalization with overlap
     ethr =  7.05E-12,  avg # of iterations =  2.0

     negative rho (up, down):  1.974E+00 0.000E+00

     total cpu time spent up to now is     8335.2 secs

     total energy              =   -7425.29574166 Ry
     Harris-Foulkes estimate   =   -7425.29574166 Ry
     estimated scf accuracy    <       0.00000005 Ry

     iteration # 27     ecut=    50.00 Ry     beta=0.70
     Davidson diagonalization with overlap
     ethr =  6.55E-12,  avg # of iterations =  1.0

     negative rho (up, down):  1.974E+00 0.000E+00

     total cpu time spent up to now is     8546.1 secs

     total energy              =   -7425.29574167 Ry
     Harris-Foulkes estimate   =   -7425.29574167 Ry
     estimated scf accuracy    <       0.00000004 Ry

     iteration # 28     ecut=    50.00 Ry     beta=0.70
     Davidson diagonalization with overlap
     ethr =  4.80E-12,  avg # of iterations =  2.0

     negative rho (up, down):  1.974E+00 0.000E+00

     total cpu time spent up to now is     8774.0 secs

     End of self-consistent calculation

          k = 0.2500 0.2500 0.0833 (167653 PWs)   bands (ev):

   -19.7094  -7.5147  -6.7222  -6.1940  -6.1930  -5.7639  -5.3558  -5.2621
    -5.2611  -5.0656  -5.0655  -4.9487  -4.9486  -4.8691  -4.8467  -4.7733
    -4.6880  -4.6847  -4.6461  -4.6457  -4.4849  -4.4679  -4.4672  -4.4661
    -4.4600  -4.4043  -4.4040  -4.3925  -4.3918  -4.3550  -4.3437  -4.3431
    -4.3006  -4.3003  -4.2667  -4.2655  -4.2141  -4.2135  -4.2043  -4.2014
    -4.1963  -4.1835  -4.1830  -4.1424  -4.1239  -4.1232  -4.1169  -4.1163
    -4.0865  -4.0388  -4.0223  -4.0197  -4.0188  -4.0157  -4.0086  -4.0022
    -4.0021  -4.0015  -3.9439  -3.9373  -3.9051  -3.8870  -3.8766  -3.8624
    -3.8481  -3.8449  -3.8262  -3.8252  -3.8211  -3.8179  -3.8109  -3.7688
    -3.7668  -3.7560  -3.7551  -3.6509  -3.6481  -3.6447  -3.6412  -3.6061
    -3.5973  -3.5839  -3.5535  -3.5522  -3.5252  -3.5232  -3.5031  -3.5023
    -3.4897  -3.4886  -3.4344  -3.4337  -3.4156  -3.4005  -3.3887  -3.3874
    -3.3870  -3.3859  -3.3589  -3.3585  -3.3223  -3.3210  -3.2998  -3.2995
    -3.2669  -3.2668  -3.2483  -3.2208  -3.2207  -3.1835  -3.1830  -3.1475
    -3.1401  -3.1393  -3.1259  -3.1250  -3.1204  -3.1196  -3.0815  -3.0721
    -3.0309  -3.0307  -3.0227  -3.0136  -3.0125  -3.0101  -2.9870  -2.9868
    -2.9659  -2.9655  -2.9642  -2.9380  -2.9380  -2.9305  -2.9278  -2.9272
    -2.8919  -2.8871  -2.8522  -2.8511  -2.8510  -2.8480  -2.8479  -2.7686
    -2.7587  -2.7549  -2.7536  -2.7530  -2.7525  -2.7478  -2.7475  -2.7474
    -2.7464  -2.7375  -2.7297  -2.7130  -2.7101  -2.7099  -2.7075  -2.6947
    -2.6902  -2.6517  -2.6510  -2.6508  -2.6473  -2.6456  -2.6286  -2.6278
    -2.6194  -2.6194  -2.6168  -2.5578  -2.5576  -2.5520  -2.5519  -2.5476
    -2.5462  -2.5187  -2.4593  -2.4585  -2.4578  -2.4563  -2.4447  -2.4433
    -2.4373  -2.4271  -2.4267  -2.3906  -2.3893  -2.3815  -2.3805  -2.3803
    -2.3794  -2.3408  -2.3398  -2.3305  -2.3302  -2.3290  -2.3284  -2.2862
    -2.2693  -2.2656  -2.2118  -2.2112  -2.1934  -2.1922  -2.1868  -2.1856
    -2.1382  -2.1367  -2.1136  -2.0979  -2.0836  -2.0825  -2.0824  -2.0607
    -2.0600  -2.0504  -2.0332  -1.9936  -1.9920  -1.9795  -1.9793  -1.9791
    -1.9682  -1.9674  -1.9526  -1.9521  -1.9496  -1.9471  -1.9436  -1.9426
    -1.9409  -1.9299  -1.9294  -1.9123  -1.9114  -1.9095  -1.9043  -1.9002
    -1.9001  -1.8766  -1.8760  -1.8647  -1.8636  -1.8595  -1.8561  -1.8190
    -1.7865  -1.7846  -1.7648  -1.7501  -1.7330  -1.7326  -1.7221  -1.7145
    -1.6983  -1.6978  -1.6838  -1.6830  -1.6815  -1.6808  -1.6785  -1.6556
    -1.6460  -1.6455  -1.6448  -1.5999  -1.5988  -1.5597  -1.5586  -1.5123
    -1.5120  -1.4995  -1.4773  -1.4716  -1.4701  -1.4529  -1.4510  -1.4346
    -1.4338  -1.4296  -1.4293  -1.4277  -1.4270  -1.4246  -1.4224  -1.4040
    -1.4029  -1.3916  -1.3759  -1.3570  -1.3562  -1.3309  -1.3305  -1.3279
    -1.3274  -1.3244  -1.3196  -1.2991  -1.2986  -1.2846  -1.2813  -1.2700
    -1.2613  -1.2478  -1.2460  -1.2168  -1.2161  -1.2084  -1.2072  -1.1730
    -1.1721  -1.1645  -1.1630  -1.1556  -1.1540  -1.1339  -1.1333  -1.1218
    -1.1151  -1.1145  -1.1024  -1.1017  -1.1006  -1.0982  -1.0865  -1.0761
    -1.0750  -1.0679  -1.0675  -1.0556  -1.0508  -1.0488  -1.0443  -1.0050
    -1.0030  -0.9966  -0.9958  -0.9954  -0.9929  -0.9557  -0.9396  -0.9386
    -0.9381  -0.9369  -0.9324  -0.9311  -0.9282  -0.9136  -0.9133  -0.8772
    -0.8745  -0.8693  -0.8687  -0.8464  -0.8459  -0.8364  -0.8067  -0.7989
    -0.7719  -0.7710  -0.7436  -0.7432  -0.7401  -0.7392  -0.7387  -0.7348
    -0.7303  -0.7292  -0.7248  -0.7246  -0.6928  -0.6922  -0.6754  -0.6725
    -0.6691  -0.6690  -0.6672  -0.6622  -0.6483  -0.3709  -0.3636  -0.3087
    -0.2995  -0.2667  -0.1067  -0.0415  -0.0405  -0.0077   0.2776   0.2798
     0.6054   0.6135   0.7069   0.7072   0.7470   0.7497   0.8902   0.8960
     1.0162   1.0176   1.1048   1.7025   1.7213   1.7220   1.7615   1.7655
     1.8039   1.8171   1.8898   1.8958   2.0981   2.0998   2.3322   2.4105
     2.4192   2.4299   2.8047   2.8165   2.8837   2.8858   2.8910   2.8929
     3.0429   3.0440   3.0765   3.1832   3.1900   3.4147   3.4242   3.5531
     3.5793   3.5838   3.8494   3.8544   3.9587   3.9830   3.9839   4.0091
     4.0401   4.1694   4.1720   4.4074   4.4084   4.4817   4.4957   4.6052
     4.6195   4.6279   4.6390   4.6574   4.8145   5.4012   5.4102   5.4385
     5.5452   5.5515   5.6054   5.6958   5.7303   5.7343   5.7427   5.8444
     5.8444   5.9000   5.9007   5.9425   5.9890   6.0490   6.0711   6.1693
     6.1818   6.1985   6.2110   6.2256   6.2381   6.2421   6.2515   6.2516

          k = 0.2500 0.2500-0.2500 (167588 PWs)   bands (ev):

   -19.7094  -7.5147  -6.7222  -6.1940  -6.1930  -5.7639  -5.3558  -5.2621
    -5.2611  -5.0656  -5.0655  -4.9487  -4.9486  -4.8691  -4.8467  -4.7733
    -4.6880  -4.6847  -4.6461  -4.6457  -4.4849  -4.4679  -4.4672  -4.4661
    -4.4600  -4.4043  -4.4040  -4.3925  -4.3918  -4.3550  -4.3437  -4.3431
    -4.3006  -4.3003  -4.2667  -4.2655  -4.2141  -4.2135  -4.2043  -4.2014
    -4.1963  -4.1835  -4.1830  -4.1424  -4.1239  -4.1232  -4.1169  -4.1163
    -4.0865  -4.0388  -4.0223  -4.0197  -4.0188  -4.0157  -4.0086  -4.0022
    -4.0021  -4.0015  -3.9439  -3.9373  -3.9051  -3.8870  -3.8766  -3.8624
    -3.8481  -3.8449  -3.8262  -3.8252  -3.8211  -3.8179  -3.8109  -3.7688
    -3.7668  -3.7560  -3.7551  -3.6509  -3.6481  -3.6447  -3.6412  -3.6061
    -3.5973  -3.5839  -3.5535  -3.5522  -3.5252  -3.5232  -3.5031  -3.5023
    -3.4897  -3.4886  -3.4344  -3.4337  -3.4156  -3.4005  -3.3887  -3.3874
    -3.3870  -3.3859  -3.3589  -3.3585  -3.3223  -3.3210  -3.2998  -3.2995
    -3.2668  -3.2668  -3.2483  -3.2208  -3.2207  -3.1835  -3.1830  -3.1475
    -3.1401  -3.1393  -3.1259  -3.1250  -3.1204  -3.1196  -3.0815  -3.0722
    -3.0309  -3.0307  -3.0227  -3.0136  -3.0125  -3.0101  -2.9870  -2.9868
    -2.9659  -2.9655  -2.9642  -2.9380  -2.9380  -2.9305  -2.9277  -2.9272
    -2.8919  -2.8871  -2.8522  -2.8511  -2.8510  -2.8480  -2.8479  -2.7686
    -2.7587  -2.7549  -2.7536  -2.7530  -2.7525  -2.7478  -2.7475  -2.7474
    -2.7464  -2.7375  -2.7297  -2.7130  -2.7101  -2.7099  -2.7075  -2.6947
    -2.6902  -2.6517  -2.6510  -2.6508  -2.6473  -2.6456  -2.6286  -2.6278
    -2.6194  -2.6194  -2.6169  -2.5578  -2.5576  -2.5520  -2.5519  -2.5476
    -2.5462  -2.5187  -2.4593  -2.4585  -2.4578  -2.4563  -2.4447  -2.4433
    -2.4373  -2.4271  -2.4267  -2.3906  -2.3893  -2.3815  -2.3805  -2.3803
    -2.3794  -2.3408  -2.3398  -2.3305  -2.3302  -2.3290  -2.3284  -2.2862
    -2.2693  -2.2656  -2.2118  -2.2112  -2.1934  -2.1923  -2.1868  -2.1856
    -2.1382  -2.1367  -2.1137  -2.0979  -2.0836  -2.0825  -2.0824  -2.0607
    -2.0600  -2.0504  -2.0332  -1.9936  -1.9920  -1.9795  -1.9793  -1.9791
    -1.9682  -1.9674  -1.9526  -1.9521  -1.9496  -1.9472  -1.9437  -1.9426
    -1.9409  -1.9299  -1.9294  -1.9123  -1.9114  -1.9095  -1.9043  -1.9002
    -1.9001  -1.8766  -1.8760  -1.8647  -1.8636  -1.8595  -1.8561  -1.8190
    -1.7865  -1.7846  -1.7647  -1.7501  -1.7330  -1.7326  -1.7221  -1.7145
    -1.6983  -1.6978  -1.6838  -1.6830  -1.6815  -1.6808  -1.6785  -1.6556
    -1.6460  -1.6455  -1.6448  -1.5999  -1.5988  -1.5597  -1.5586  -1.5123
    -1.5120  -1.4995  -1.4773  -1.4716  -1.4701  -1.4529  -1.4510  -1.4346
    -1.4338  -1.4296  -1.4293  -1.4277  -1.4270  -1.4246  -1.4224  -1.4040
    -1.4029  -1.3916  -1.3760  -1.3570  -1.3562  -1.3309  -1.3305  -1.3279
    -1.3274  -1.3244  -1.3196  -1.2991  -1.2986  -1.2846  -1.2813  -1.2700
    -1.2613  -1.2478  -1.2460  -1.2168  -1.2161  -1.2084  -1.2072  -1.1730
    -1.1721  -1.1645  -1.1630  -1.1556  -1.1540  -1.1339  -1.1333  -1.1218
    -1.1151  -1.1145  -1.1023  -1.1017  -1.1006  -1.0982  -1.0865  -1.0761
    -1.0750  -1.0678  -1.0675  -1.0556  -1.0508  -1.0488  -1.0443  -1.0050
    -1.0030  -0.9966  -0.9958  -0.9954  -0.9929  -0.9557  -0.9396  -0.9386
    -0.9381  -0.9369  -0.9324  -0.9311  -0.9282  -0.9136  -0.9133  -0.8772
    -0.8745  -0.8693  -0.8687  -0.8464  -0.8459  -0.8364  -0.8067  -0.7989
    -0.7719  -0.7710  -0.7436  -0.7432  -0.7401  -0.7393  -0.7388  -0.7348
    -0.7303  -0.7292  -0.7248  -0.7246  -0.6928  -0.6922  -0.6754  -0.6725
    -0.6691  -0.6690  -0.6672  -0.6622  -0.6483  -0.3709  -0.3636  -0.3087
    -0.2994  -0.2667  -0.1067  -0.0415  -0.0405  -0.0077   0.2776   0.2798
     0.6054   0.6135   0.7069   0.7072   0.7471   0.7497   0.8902   0.8961
     1.0162   1.0176   1.1048   1.7025   1.7213   1.7220   1.7615   1.7655
     1.8039   1.8171   1.8898   1.8958   2.0981   2.0998   2.3322   2.4105
     2.4192   2.4299   2.8047   2.8165   2.8837   2.8858   2.8911   2.8929
     3.0429   3.0440   3.0765   3.1832   3.1900   3.4147   3.4242   3.5531
     3.5793   3.5838   3.8494   3.8544   3.9587   3.9830   3.9839   4.0092
     4.0402   4.1694   4.1720   4.4074   4.4084   4.4815   4.4957   4.6041
     4.6195   4.6276   4.6390   4.6573   4.8138   5.3990   5.4102   5.4123
     5.5452   5.5511   5.6684   5.6940   5.7301   5.7352   5.7434   5.8442
     5.8444   5.9000   5.9007   5.9427   5.9893   6.0495   6.1067   6.1576
     6.1909   6.2106   6.2248   6.2288   6.2380   6.2423   6.2516   6.2529

          k =-0.2500-0.2500 0.0833 (167653 PWs)   bands (ev):

   -19.7094  -7.5147  -6.7222  -6.1940  -6.1930  -5.7639  -5.3558  -5.2621
    -5.2611  -5.0656  -5.0655  -4.9487  -4.9486  -4.8691  -4.8467  -4.7733
    -4.6880  -4.6847  -4.6461  -4.6457  -4.4849  -4.4679  -4.4672  -4.4661
    -4.4600  -4.4043  -4.4040  -4.3925  -4.3918  -4.3550  -4.3437  -4.3431
    -4.3006  -4.3003  -4.2667  -4.2655  -4.2141  -4.2135  -4.2043  -4.2014
    -4.1963  -4.1835  -4.1830  -4.1424  -4.1239  -4.1232  -4.1169  -4.1163
    -4.0865  -4.0388  -4.0223  -4.0197  -4.0188  -4.0157  -4.0086  -4.0022
    -4.0021  -4.0015  -3.9439  -3.9373  -3.9051  -3.8870  -3.8766  -3.8624
    -3.8481  -3.8449  -3.8262  -3.8252  -3.8211  -3.8179  -3.8109  -3.7688
    -3.7668  -3.7560  -3.7551  -3.6509  -3.6481  -3.6447  -3.6412  -3.6061
    -3.5973  -3.5839  -3.5535  -3.5522  -3.5252  -3.5232  -3.5031  -3.5023
    -3.4897  -3.4886  -3.4344  -3.4337  -3.4156  -3.4005  -3.3887  -3.3874
    -3.3870  -3.3859  -3.3589  -3.3585  -3.3223  -3.3210  -3.2998  -3.2995
    -3.2669  -3.2668  -3.2483  -3.2208  -3.2207  -3.1835  -3.1830  -3.1475
    -3.1401  -3.1393  -3.1259  -3.1250  -3.1204  -3.1196  -3.0815  -3.0721
    -3.0309  -3.0307  -3.0227  -3.0136  -3.0125  -3.0101  -2.9870  -2.9868
    -2.9659  -2.9655  -2.9642  -2.9380  -2.9380  -2.9305  -2.9278  -2.9272
    -2.8919  -2.8871  -2.8522  -2.8511  -2.8510  -2.8480  -2.8479  -2.7686
    -2.7587  -2.7549  -2.7536  -2.7530  -2.7525  -2.7478  -2.7475  -2.7474
    -2.7464  -2.7375  -2.7297  -2.7130  -2.7101  -2.7099  -2.7075  -2.6947
    -2.6902  -2.6517  -2.6510  -2.6508  -2.6473  -2.6456  -2.6286  -2.6278
    -2.6194  -2.6194  -2.6168  -2.5578  -2.5576  -2.5520  -2.5519  -2.5476
    -2.5462  -2.5187  -2.4593  -2.4585  -2.4578  -2.4563  -2.4447  -2.4433
    -2.4373  -2.4271  -2.4267  -2.3906  -2.3893  -2.3815  -2.3805  -2.3803
    -2.3794  -2.3408  -2.3398  -2.3305  -2.3302  -2.3290  -2.3284  -2.2862
    -2.2693  -2.2656  -2.2118  -2.2112  -2.1934  -2.1922  -2.1868  -2.1856
    -2.1382  -2.1367  -2.1136  -2.0979  -2.0836  -2.0825  -2.0824  -2.0607
    -2.0600  -2.0504  -2.0332  -1.9936  -1.9920  -1.9795  -1.9793  -1.9791
    -1.9682  -1.9674  -1.9526  -1.9521  -1.9496  -1.9471  -1.9436  -1.9426
    -1.9409  -1.9299  -1.9294  -1.9123  -1.9114  -1.9095  -1.9043  -1.9002
    -1.9001  -1.8766  -1.8760  -1.8647  -1.8636  -1.8595  -1.8561  -1.8190
    -1.7865  -1.7846  -1.7648  -1.7501  -1.7330  -1.7326  -1.7221  -1.7145
    -1.6983  -1.6978  -1.6838  -1.6830  -1.6815  -1.6808  -1.6785  -1.6556
    -1.6460  -1.6455  -1.6448  -1.5999  -1.5988  -1.5597  -1.5586  -1.5123
    -1.5120  -1.4995  -1.4773  -1.4716  -1.4701  -1.4529  -1.4510  -1.4346
    -1.4338  -1.4296  -1.4293  -1.4277  -1.4270  -1.4246  -1.4224  -1.4040
    -1.4029  -1.3916  -1.3759  -1.3570  -1.3562  -1.3309  -1.3305  -1.3279
    -1.3274  -1.3244  -1.3196  -1.2991  -1.2986  -1.2846  -1.2813  -1.2700
    -1.2613  -1.2478  -1.2460  -1.2168  -1.2161  -1.2084  -1.2072  -1.1730
    -1.1721  -1.1645  -1.1630  -1.1556  -1.1540  -1.1339  -1.1333  -1.1218
    -1.1151  -1.1145  -1.1024  -1.1017  -1.1006  -1.0982  -1.0865  -1.0761
    -1.0750  -1.0679  -1.0675  -1.0556  -1.0508  -1.0488  -1.0443  -1.0050
    -1.0030  -0.9966  -0.9958  -0.9954  -0.9929  -0.9557  -0.9396  -0.9386
    -0.9381  -0.9369  -0.9324  -0.9311  -0.9282  -0.9136  -0.9133  -0.8772
    -0.8745  -0.8693  -0.8687  -0.8464  -0.8459  -0.8364  -0.8067  -0.7989
    -0.7719  -0.7710  -0.7436  -0.7432  -0.7401  -0.7392  -0.7387  -0.7348
    -0.7303  -0.7292  -0.7248  -0.7246  -0.6928  -0.6922  -0.6754  -0.6725
    -0.6691  -0.6690  -0.6672  -0.6622  -0.6483  -0.3709  -0.3636  -0.3087
    -0.2995  -0.2667  -0.1067  -0.0415  -0.0405  -0.0077   0.2776   0.2798
     0.6054   0.6135   0.7069   0.7072   0.7470   0.7497   0.8902   0.8960
     1.0162   1.0176   1.1048   1.7025   1.7213   1.7220   1.7615   1.7655
     1.8039   1.8171   1.8898   1.8958   2.0981   2.0998   2.3322   2.4105
     2.4192   2.4299   2.8047   2.8165   2.8837   2.8858   2.8910   2.8929
     3.0429   3.0440   3.0765   3.1832   3.1900   3.4147   3.4242   3.5531
     3.5793   3.5838   3.8494   3.8544   3.9587   3.9830   3.9839   4.0091
     4.0401   4.1694   4.1720   4.4074   4.4084   4.4817   4.4957   4.6052
     4.6195   4.6279   4.6390   4.6574   4.8145   5.4013   5.4103   5.4382
     5.5452   5.5515   5.6062   5.6958   5.7303   5.7343   5.7426   5.8444
     5.8445   5.9000   5.9007   5.9425   5.9895   6.0462   6.0710   6.1693
     6.1819   6.1997   6.2115   6.2256   6.2381   6.2421   6.2514   6.2517

          k =-0.2500 0.2500-0.0833 (167653 PWs)   bands (ev):

   -19.7094  -7.5147  -6.7222  -6.1945  -6.1925  -5.7639  -5.3558  -5.2626
    -5.2607  -5.0656  -5.0655  -4.9493  -4.9479  -4.8690  -4.8468  -4.7733
    -4.6880  -4.6847  -4.6460  -4.6458  -4.4849  -4.4679  -4.4676  -4.4657
    -4.4600  -4.4043  -4.4041  -4.3929  -4.3914  -4.3550  -4.3437  -4.3432
    -4.3006  -4.3004  -4.2667  -4.2655  -4.2146  -4.2129  -4.2043  -4.2014
    -4.1963  -4.1834  -4.1830  -4.1425  -4.1242  -4.1230  -4.1170  -4.1161
    -4.0866  -4.0388  -4.0220  -4.0201  -4.0185  -4.0160  -4.0086  -4.0021
    -4.0020  -4.0015  -3.9433  -3.9379  -3.9046  -3.8874  -3.8766  -3.8627
    -3.8482  -3.8448  -3.8259  -3.8255  -3.8210  -3.8179  -3.8105  -3.7687
    -3.7668  -3.7563  -3.7548  -3.6514  -3.6476  -3.6452  -3.6409  -3.6061
    -3.5973  -3.5839  -3.5535  -3.5523  -3.5256  -3.5228  -3.5033  -3.5020
    -3.4902  -3.4883  -3.4347  -3.4335  -3.4155  -3.4005  -3.3888  -3.3875
    -3.3868  -3.3859  -3.3591  -3.3583  -3.3223  -3.3210  -3.3001  -3.2993
    -3.2671  -3.2666  -3.2483  -3.2208  -3.2207  -3.1838  -3.1828  -3.1476
    -3.1401  -3.1393  -3.1261  -3.1249  -3.1205  -3.1195  -3.0815  -3.0721
    -3.0308  -3.0307  -3.0227  -3.0132  -3.0130  -3.0100  -2.9871  -2.9868
    -2.9664  -2.9655  -2.9636  -2.9380  -2.9379  -2.9305  -2.9276  -2.9273
    -2.8919  -2.8870  -2.8526  -2.8511  -2.8508  -2.8480  -2.8479  -2.7686
    -2.7587  -2.7553  -2.7533  -2.7529  -2.7522  -2.7480  -2.7476  -2.7475
    -2.7461  -2.7375  -2.7297  -2.7130  -2.7103  -2.7100  -2.7073  -2.6946
    -2.6900  -2.6516  -2.6512  -2.6506  -2.6479  -2.6453  -2.6289  -2.6275
    -2.6195  -2.6193  -2.6169  -2.5578  -2.5575  -2.5521  -2.5519  -2.5472
    -2.5463  -2.5188  -2.4592  -2.4587  -2.4577  -2.4563  -2.4448  -2.4431
    -2.4373  -2.4271  -2.4265  -2.3912  -2.3887  -2.3822  -2.3810  -2.3799
    -2.3789  -2.3411  -2.3396  -2.3306  -2.3303  -2.3290  -2.3283  -2.2861
    -2.2694  -2.2666  -2.2120  -2.2110  -2.1937  -2.1920  -2.1864  -2.1862
    -2.1388  -2.1368  -2.1136  -2.0986  -2.0836  -2.0825  -2.0823  -2.0604
    -2.0599  -2.0504  -2.0332  -1.9935  -1.9917  -1.9802  -1.9796  -1.9794
    -1.9676  -1.9671  -1.9522  -1.9515  -1.9505  -1.9470  -1.9445  -1.9426
    -1.9402  -1.9307  -1.9289  -1.9124  -1.9120  -1.9097  -1.9035  -1.9005
    -1.8994  -1.8776  -1.8757  -1.8648  -1.8630  -1.8594  -1.8562  -1.8191
    -1.7870  -1.7840  -1.7521  -1.7501  -1.7336  -1.7297  -1.7220  -1.7200
    -1.6994  -1.6843  -1.6838  -1.6826  -1.6818  -1.6808  -1.6788  -1.6767
    -1.6466  -1.6457  -1.6440  -1.6004  -1.5977  -1.5598  -1.5590  -1.5127
    -1.5110  -1.4992  -1.4774  -1.4714  -1.4702  -1.4524  -1.4522  -1.4351
    -1.4325  -1.4301  -1.4289  -1.4282  -1.4255  -1.4243  -1.4232  -1.4039
    -1.4036  -1.3914  -1.3761  -1.3572  -1.3568  -1.3312  -1.3305  -1.3284
    -1.3269  -1.3234  -1.3185  -1.3004  -1.2978  -1.2862  -1.2804  -1.2690
    -1.2613  -1.2484  -1.2454  -1.2169  -1.2160  -1.2087  -1.2069  -1.1740
    -1.1706  -1.1648  -1.1626  -1.1561  -1.1539  -1.1342  -1.1329  -1.1219
    -1.1155  -1.1142  -1.1026  -1.1023  -1.1004  -1.0973  -1.0866  -1.0754
    -1.0752  -1.0681  -1.0674  -1.0553  -1.0522  -1.0486  -1.0443  -1.0053
    -1.0021  -0.9967  -0.9961  -0.9953  -0.9931  -0.9557  -0.9405  -0.9383
    -0.9378  -0.9366  -0.9342  -0.9304  -0.9283  -0.9137  -0.9130  -0.8778
    -0.8739  -0.8693  -0.8685  -0.8466  -0.8457  -0.8364  -0.8068  -0.7991
    -0.7722  -0.7706  -0.7437  -0.7432  -0.7401  -0.7392  -0.7388  -0.7347
    -0.7302  -0.7293  -0.7251  -0.7241  -0.6932  -0.6918  -0.6765  -0.6722
    -0.6694  -0.6685  -0.6683  -0.6604  -0.6484  -0.3709  -0.3636  -0.3111
    -0.2974  -0.2667  -0.1060  -0.0420  -0.0398  -0.0074   0.2765   0.2809
     0.6034   0.6155   0.7065   0.7079   0.7461   0.7512   0.8876   0.8980
     1.0161   1.0175   1.1053   1.7032   1.7215   1.7218   1.7603   1.7654
     1.7989   1.8212   1.8880   1.8983   2.0971   2.1007   2.3319   2.4083
     2.4210   2.4302   2.8006   2.8186   2.8833   2.8864   2.8904   2.8938
     3.0432   3.0437   3.0739   3.1796   3.1976   3.4144   3.4278   3.5528
     3.5778   3.5849   3.8470   3.8572   3.9624   3.9835   3.9851   4.0202
     4.0270   4.1683   4.1735   4.4073   4.4089   4.4922   4.4931   4.5604
     4.6188   4.6253   4.6345   4.6636   4.8496   5.3766   5.4240   5.4932
     5.5263   5.5615   5.5939   5.6367   5.7281   5.7374   5.7467   5.8422
     5.8462   5.8990   5.9023   5.9448   5.9979   6.0116   6.1284   6.1451
     6.1809   6.2135   6.2247   6.2311   6.2348   6.2368   6.2490   6.2519

          k = 0.2500-0.2500-0.0833 (167653 PWs)   bands (ev):

   -19.7094  -7.5147  -6.7222  -6.1945  -6.1925  -5.7639  -5.3558  -5.2626
    -5.2607  -5.0656  -5.0655  -4.9493  -4.9479  -4.8690  -4.8468  -4.7733
    -4.6880  -4.6847  -4.6460  -4.6458  -4.4849  -4.4679  -4.4676  -4.4657
    -4.4600  -4.4043  -4.4041  -4.3929  -4.3914  -4.3550  -4.3437  -4.3432
    -4.3006  -4.3004  -4.2667  -4.2655  -4.2146  -4.2129  -4.2043  -4.2014
    -4.1963  -4.1834  -4.1830  -4.1425  -4.1242  -4.1230  -4.1170  -4.1161
    -4.0866  -4.0388  -4.0220  -4.0201  -4.0185  -4.0160  -4.0086  -4.0021
    -4.0020  -4.0015  -3.9433  -3.9379  -3.9046  -3.8874  -3.8766  -3.8627
    -3.8482  -3.8448  -3.8259  -3.8255  -3.8210  -3.8179  -3.8105  -3.7687
    -3.7668  -3.7563  -3.7548  -3.6514  -3.6476  -3.6452  -3.6409  -3.6061
    -3.5973  -3.5839  -3.5535  -3.5523  -3.5256  -3.5228  -3.5033  -3.5020
    -3.4902  -3.4883  -3.4347  -3.4335  -3.4155  -3.4005  -3.3888  -3.3875
    -3.3868  -3.3859  -3.3591  -3.3583  -3.3223  -3.3210  -3.3001  -3.2993
    -3.2671  -3.2666  -3.2483  -3.2208  -3.2207  -3.1838  -3.1828  -3.1476
    -3.1401  -3.1393  -3.1261  -3.1249  -3.1205  -3.1195  -3.0815  -3.0721
    -3.0308  -3.0307  -3.0227  -3.0132  -3.0130  -3.0100  -2.9871  -2.9868
    -2.9664  -2.9655  -2.9636  -2.9380  -2.9379  -2.9305  -2.9276  -2.9273
    -2.8919  -2.8870  -2.8526  -2.8511  -2.8508  -2.8480  -2.8479  -2.7686
    -2.7587  -2.7553  -2.7533  -2.7529  -2.7522  -2.7480  -2.7476  -2.7475
    -2.7461  -2.7375  -2.7297  -2.7130  -2.7103  -2.7100  -2.7073  -2.6946
    -2.6900  -2.6516  -2.6512  -2.6506  -2.6479  -2.6453  -2.6289  -2.6275
    -2.6195  -2.6193  -2.6169  -2.5578  -2.5575  -2.5521  -2.5519  -2.5472
    -2.5463  -2.5188  -2.4592  -2.4587  -2.4577  -2.4563  -2.4448  -2.4431
    -2.4373  -2.4271  -2.4265  -2.3912  -2.3887  -2.3822  -2.3810  -2.3799
    -2.3789  -2.3411  -2.3396  -2.3306  -2.3303  -2.3290  -2.3283  -2.2861
    -2.2694  -2.2666  -2.2120  -2.2110  -2.1937  -2.1920  -2.1864  -2.1862
    -2.1388  -2.1368  -2.1136  -2.0986  -2.0836  -2.0825  -2.0823  -2.0604
    -2.0599  -2.0504  -2.0332  -1.9935  -1.9917  -1.9802  -1.9796  -1.9794
    -1.9676  -1.9671  -1.9522  -1.9515  -1.9505  -1.9470  -1.9445  -1.9426
    -1.9402  -1.9307  -1.9289  -1.9124  -1.9120  -1.9097  -1.9035  -1.9005
    -1.8994  -1.8776  -1.8757  -1.8648  -1.8630  -1.8594  -1.8562  -1.8191
    -1.7870  -1.7840  -1.7521  -1.7501  -1.7336  -1.7297  -1.7220  -1.7200
    -1.6994  -1.6843  -1.6838  -1.6826  -1.6818  -1.6808  -1.6788  -1.6767
    -1.6466  -1.6457  -1.6440  -1.6004  -1.5977  -1.5598  -1.5590  -1.5127
    -1.5110  -1.4992  -1.4774  -1.4714  -1.4702  -1.4524  -1.4522  -1.4351
    -1.4325  -1.4301  -1.4289  -1.4282  -1.4255  -1.4243  -1.4232  -1.4039
    -1.4036  -1.3914  -1.3761  -1.3572  -1.3568  -1.3312  -1.3305  -1.3284
    -1.3269  -1.3234  -1.3185  -1.3004  -1.2978  -1.2862  -1.2804  -1.2690
    -1.2613  -1.2484  -1.2454  -1.2169  -1.2160  -1.2087  -1.2069  -1.1740
    -1.1706  -1.1648  -1.1626  -1.1561  -1.1539  -1.1342  -1.1329  -1.1219
    -1.1155  -1.1142  -1.1026  -1.1023  -1.1004  -1.0973  -1.0866  -1.0754
    -1.0752  -1.0681  -1.0674  -1.0553  -1.0522  -1.0486  -1.0443  -1.0053
    -1.0021  -0.9967  -0.9961  -0.9953  -0.9931  -0.9557  -0.9405  -0.9383
    -0.9378  -0.9366  -0.9342  -0.9304  -0.9283  -0.9137  -0.9130  -0.8778
    -0.8739  -0.8693  -0.8685  -0.8466  -0.8457  -0.8364  -0.8068  -0.7991
    -0.7722  -0.7706  -0.7437  -0.7432  -0.7401  -0.7392  -0.7388  -0.7347
    -0.7302  -0.7293  -0.7251  -0.7241  -0.6932  -0.6918  -0.6765  -0.6722
    -0.6694  -0.6685  -0.6683  -0.6604  -0.6484  -0.3709  -0.3636  -0.3111
    -0.2974  -0.2667  -0.1060  -0.0420  -0.0398  -0.0074   0.2765   0.2809
     0.6034   0.6155   0.7065   0.7079   0.7461   0.7512   0.8876   0.8980
     1.0161   1.0175   1.1053   1.7032   1.7215   1.7218   1.7603   1.7654
     1.7989   1.8212   1.8880   1.8983   2.0971   2.1007   2.3319   2.4083
     2.4210   2.4302   2.8006   2.8186   2.8833   2.8864   2.8904   2.8938
     3.0432   3.0437   3.0739   3.1796   3.1976   3.4144   3.4278   3.5528
     3.5778   3.5849   3.8470   3.8572   3.9624   3.9835   3.9851   4.0202
     4.0270   4.1683   4.1735   4.4073   4.4089   4.4922   4.4931   4.5604
     4.6188   4.6253   4.6345   4.6636   4.8496   5.3766   5.4241   5.4930
     5.5264   5.5615   5.5941   5.6366   5.7281   5.7374   5.7467   5.8422
     5.8462   5.8990   5.9023   5.9448   5.9979   6.0115   6.1278   6.1456
     6.1809   6.2136   6.2247   6.2312   6.2348   6.2368   6.2491   6.2518

          k =-0.2500 0.2500 0.2500 (167588 PWs)   bands (ev):

   -19.7094  -7.5147  -6.7222  -6.1945  -6.1925  -5.7639  -5.3558  -5.2626
    -5.2607  -5.0656  -5.0655  -4.9493  -4.9479  -4.8690  -4.8468  -4.7733
    -4.6880  -4.6846  -4.6460  -4.6458  -4.4849  -4.4679  -4.4676  -4.4657
    -4.4600  -4.4043  -4.4041  -4.3929  -4.3914  -4.3550  -4.3437  -4.3432
    -4.3006  -4.3004  -4.2667  -4.2655  -4.2146  -4.2129  -4.2043  -4.2014
    -4.1963  -4.1834  -4.1830  -4.1425  -4.1242  -4.1230  -4.1170  -4.1161
    -4.0866  -4.0388  -4.0220  -4.0201  -4.0185  -4.0160  -4.0086  -4.0021
    -4.0020  -4.0015  -3.9433  -3.9379  -3.9046  -3.8874  -3.8766  -3.8627
    -3.8482  -3.8448  -3.8259  -3.8255  -3.8210  -3.8179  -3.8105  -3.7687
    -3.7668  -3.7563  -3.7548  -3.6514  -3.6476  -3.6452  -3.6409  -3.6061
    -3.5973  -3.5839  -3.5535  -3.5523  -3.5256  -3.5228  -3.5033  -3.5020
    -3.4902  -3.4883  -3.4347  -3.4335  -3.4155  -3.4005  -3.3888  -3.3875
    -3.3868  -3.3859  -3.3591  -3.3583  -3.3223  -3.3210  -3.3001  -3.2993
    -3.2671  -3.2666  -3.2483  -3.2208  -3.2207  -3.1838  -3.1828  -3.1476
    -3.1401  -3.1393  -3.1261  -3.1249  -3.1205  -3.1195  -3.0815  -3.0722
    -3.0308  -3.0307  -3.0227  -3.0132  -3.0130  -3.0100  -2.9871  -2.9868
    -2.9664  -2.9655  -2.9636  -2.9380  -2.9379  -2.9305  -2.9276  -2.9273
    -2.8919  -2.8870  -2.8526  -2.8511  -2.8508  -2.8480  -2.8479  -2.7686
    -2.7587  -2.7553  -2.7533  -2.7529  -2.7522  -2.7480  -2.7476  -2.7475
    -2.7461  -2.7375  -2.7297  -2.7130  -2.7103  -2.7099  -2.7073  -2.6946
    -2.6900  -2.6516  -2.6512  -2.6506  -2.6478  -2.6453  -2.6289  -2.6275
    -2.6195  -2.6193  -2.6169  -2.5578  -2.5575  -2.5521  -2.5519  -2.5472
    -2.5463  -2.5188  -2.4592  -2.4587  -2.4576  -2.4564  -2.4448  -2.4431
    -2.4373  -2.4271  -2.4265  -2.3912  -2.3887  -2.3822  -2.3810  -2.3799
    -2.3789  -2.3411  -2.3396  -2.3306  -2.3303  -2.3290  -2.3283  -2.2861
    -2.2694  -2.2666  -2.2120  -2.2110  -2.1937  -2.1920  -2.1864  -2.1862
    -2.1388  -2.1368  -2.1136  -2.0986  -2.0836  -2.0825  -2.0823  -2.0604
    -2.0599  -2.0504  -2.0332  -1.9935  -1.9916  -1.9802  -1.9796  -1.9794
    -1.9676  -1.9671  -1.9522  -1.9515  -1.9505  -1.9471  -1.9445  -1.9426
    -1.9402  -1.9307  -1.9289  -1.9124  -1.9120  -1.9097  -1.9035  -1.9005
    -1.8994  -1.8776  -1.8757  -1.8648  -1.8630  -1.8594  -1.8562  -1.8191
    -1.7870  -1.7840  -1.7521  -1.7501  -1.7336  -1.7297  -1.7220  -1.7200
    -1.6993  -1.6843  -1.6838  -1.6826  -1.6818  -1.6808  -1.6788  -1.6767
    -1.6466  -1.6457  -1.6440  -1.6004  -1.5977  -1.5598  -1.5590  -1.5127
    -1.5110  -1.4992  -1.4774  -1.4714  -1.4702  -1.4525  -1.4522  -1.4351
    -1.4325  -1.4301  -1.4289  -1.4282  -1.4255  -1.4243  -1.4232  -1.4039
    -1.4036  -1.3914  -1.3761  -1.3572  -1.3568  -1.3312  -1.3305  -1.3284
    -1.3269  -1.3234  -1.3185  -1.3004  -1.2978  -1.2862  -1.2804  -1.2690
    -1.2613  -1.2484  -1.2454  -1.2169  -1.2160  -1.2087  -1.2069  -1.1740
    -1.1706  -1.1648  -1.1626  -1.1561  -1.1539  -1.1342  -1.1329  -1.1219
    -1.1155  -1.1142  -1.1026  -1.1023  -1.1004  -1.0973  -1.0866  -1.0754
    -1.0752  -1.0681  -1.0674  -1.0553  -1.0522  -1.0486  -1.0443  -1.0053
    -1.0021  -0.9967  -0.9961  -0.9953  -0.9931  -0.9557  -0.9405  -0.9383
    -0.9378  -0.9366  -0.9342  -0.9304  -0.9283  -0.9137  -0.9130  -0.8778
    -0.8739  -0.8694  -0.8685  -0.8466  -0.8457  -0.8364  -0.8068  -0.7991
    -0.7722  -0.7706  -0.7437  -0.7432  -0.7401  -0.7392  -0.7388  -0.7347
    -0.7302  -0.7293  -0.7251  -0.7241  -0.6932  -0.6918  -0.6765  -0.6722
    -0.6694  -0.6685  -0.6683  -0.6604  -0.6484  -0.3709  -0.3636  -0.3110
    -0.2974  -0.2667  -0.1060  -0.0420  -0.0398  -0.0074   0.2765   0.2809
     0.6034   0.6155   0.7065   0.7079   0.7461   0.7512   0.8876   0.8980
     1.0161   1.0175   1.1053   1.7032   1.7215   1.7218   1.7603   1.7654
     1.7989   1.8212   1.8880   1.8983   2.0972   2.1007   2.3319   2.4083
     2.4210   2.4302   2.8006   2.8186   2.8833   2.8864   2.8904   2.8938
     3.0432   3.0437   3.0739   3.1796   3.1976   3.4144   3.4278   3.5528
     3.5778   3.5850   3.8470   3.8572   3.9624   3.9835   3.9851   4.0204
     4.0271   4.1683   4.1735   4.4073   4.4089   4.4921   4.4931   4.5594
     4.6188   4.6253   4.6345   4.6635   4.8483   5.3764   5.4105   5.4798
     5.5232   5.5606   5.5819   5.7281   5.7334   5.7375   5.7424   5.8420
     5.8467   5.8990   5.9024   5.9448   5.9918   6.0543   6.0580   6.1915
     6.2040   6.2065   6.2246   6.2344   6.2420   6.2450   6.2495   6.2536

     the Fermi energy is     0.9667 ev

!    total energy              =   -7425.29574168 Ry
     Harris-Foulkes estimate   =   -7425.29574167 Ry
     estimated scf accuracy    <          5.9E-09 Ry

     The total energy is the sum of the following terms:

     one-electron contribution =  -48666.10529025 Ry
     hartree contribution      =   24886.73892040 Ry
     xc contribution           =   -3604.20638284 Ry
     ewald contribution        =   19958.27986188 Ry
     smearing contrib. (-TS)   =      -0.00285087 Ry

     convergence has been achieved in  28 iterations

     Writing output data file 2959695.save

     init_run     :    116.97s CPU    124.56s WALL (       1 calls)
     electrons    :   8228.32s CPU   8643.89s WALL (       1 calls)

     Called by init_run:
     wfcinit      :     82.02s CPU     88.85s WALL (       1 calls)
     potinit      :      7.52s CPU      7.99s WALL (       1 calls)

     Called by electrons:
     c_bands      :   6327.59s CPU   6656.68s WALL (      29 calls)
     sum_band     :   1213.82s CPU   1282.79s WALL (      29 calls)
     v_of_rho     :    149.70s CPU    161.69s WALL (      29 calls)
     newd         :    552.22s CPU    557.32s WALL (      29 calls)
     mix_rho      :      4.02s CPU      4.47s WALL (      29 calls)
     vdW_energy   :     11.47s CPU     12.19s WALL (      29 calls)
     vdW_ffts     :     80.20s CPU     86.25s WALL (      58 calls)
     vdW_v        :     18.24s CPU     19.09s WALL (      29 calls)

     Called by c_bands:
     init_us_2    :     11.03s CPU     11.42s WALL (     354 calls)
     cegterg      :   6205.90s CPU   6526.15s WALL (     174 calls)

     Called by *egterg:
     h_psi        :   2705.82s CPU   2996.00s WALL (     869 calls)
     s_psi        :    382.27s CPU    384.28s WALL (     869 calls)
     g_psi        :      4.82s CPU      4.84s WALL (     689 calls)
     cdiaghg      :   1733.92s CPU   1739.39s WALL (     857 calls)

     Called by h_psi:
     add_vuspsi   :    384.98s CPU    386.98s WALL (     869 calls)

     General routines
     calbec       :    571.72s CPU    573.87s WALL (    1043 calls)
     fft          :    411.36s CPU    423.48s WALL (    1914 calls)
     ffts         :      2.02s CPU      2.27s WALL (      58 calls)
     fftw         :   2218.62s CPU   2546.03s WALL (  469170 calls)
     interpolate  :      5.52s CPU      6.28s WALL (      58 calls)
     davcio       :      0.00s CPU      0.15s WALL (       6 calls)

     Parallel routines
     fft_scatter  :   2008.39s CPU   2295.25s WALL (  471142 calls)

     PWSCF        :     2h19m CPU        2h26m WALL


   This run was terminated on:  18:18:13  29Aug2015            

=------------------------------------------------------------------------------=
   JOB DONE.
=------------------------------------------------------------------------------=
