
     Program PWSCF v.5.1.2 starts on 24Jun2015 at 23:11:13 

     This program is part of the open-source Quantum ESPRESSO suite
     for quantum simulation of materials; please cite
         "P. Giannozzi et al., J. Phys.:Condens. Matter 21 395502 (2009);
          URL http://www.quantum-espresso.org", 
     in publications or presentations arising from this work. More details at
     http://www.quantum-espresso.org/quote

     Parallel version (MPI), running on    32 processors
     R & G space division:  proc/nbgrp/npool/nimage =      32
     Reading input from top.O1.Au62.d.2.6.phi.25.psi.90.in
Warning: card &IONS ignored
Warning: card / ignored
Warning: card &CELL ignored
Warning: card / ignored

     Current dimensions of program PWSCF are:
     Max number of different atomic species (ntypx) = 10
     Max number of k-points (npk) =  40000
     Max angular momentum in pseudopotentials (lmaxx) =  3

     IMPORTANT: XC functional enforced from input :
     Exchange-correlation      = VDW-DF ( 1  4  4  0 1 0)
     Any further DFT definition will be discarded
     Please, verify this is what you really want


     Subspace diagonalization in iterative solution of the eigenvalue problem:
     a serial algorithm will be used


     Parallelization info
     --------------------
     sticks:   dense  smooth     PW     G-vecs:    dense   smooth      PW
     Min         578     289     74               118518    41891    5486
     Max         579     290     75               118533    41932    5497
     Sum       18505    9265   2385              3792731  1341081  175711


     Title: 
     top.O1.Au62.d.2.6.phi.25.psi.90                                            


     bravais-lattice index     =            8
     lattice parameter (alat)  =      24.1233  a.u.
     unit-cell volume          =   28076.2361 (a.u.)^3
     number of atoms/cell      =           75
     number of atomic types    =            3
     number of electrons       =       800.00
     number of Kohn-Sham states=          480
     kinetic-energy cutoff     =      50.0000  Ry
     charge density cutoff     =     400.0000  Ry
     convergence threshold     =      1.0E-08
     mixing beta               =       0.7000
     number of iterations used =            8  plain     mixing
     Exchange-correlation      = VDW-DF ( 1  4  4  0 1 0)

     celldm(1)=  24.123277  celldm(2)=   1.000000  celldm(3)=   2.000000
     celldm(4)=   0.000000  celldm(5)=   0.000000  celldm(6)=   0.000000

     crystal axes: (cart. coord. in units of alat)
               a(1) = (   1.000000   0.000000   0.000000 )  
               a(2) = (   0.000000   1.000000   0.000000 )  
               a(3) = (   0.000000   0.000000   2.000000 )  

     reciprocal axes: (cart. coord. in units 2 pi/alat)
               b(1) = (  1.000000  0.000000  0.000000 )  
               b(2) = (  0.000000  1.000000  0.000000 )  
               b(3) = (  0.000000  0.000000  0.500000 )  


     PseudoPot. # 1 for Au read from file:
     /home/scc/andrejb/qe/pseudo/Au.pbe-nd-van.UPF
     MD5 check sum: 458681b50f36d87ef23c61b04bba420a
     Pseudo is Ultrasoft + core correction, Zval = 11.0
     Generated by new atomic code, or converted to UPF format
     Using radial grid of  985 points,  3 beta functions with: 
                l(1) =   1
                l(2) =   2
                l(3) =   2
     Q(r) pseudized with  8 coefficients,  rinner =    1.100   1.100   1.100
                                                       1.100   1.100

     PseudoPot. # 2 for H  read from file:
     /home/scc/andrejb/qe/pseudo/H.pbe-van_ak.UPF
     MD5 check sum: 403db7282739603aa925980fa9b8608d
     Pseudo is Ultrasoft, Zval =  1.0
     Generated by new atomic code, or converted to UPF format
     Using radial grid of  615 points,  1 beta functions with: 
                l(1) =   0
     Q(r) pseudized with  8 coefficients,  rinner =    0.800

     PseudoPot. # 3 for O  read from file:
     /home/scc/andrejb/qe/pseudo/O.pbe-van_ak.UPF
     MD5 check sum: 4b8c549914a63cae506c6ff22b5af4fe
     Pseudo is Ultrasoft, Zval =  6.0
     Generated by new atomic code, or converted to UPF format
     Using radial grid of  737 points,  4 beta functions with: 
                l(1) =   0
                l(2) =   0
                l(3) =   1
                l(4) =   1
     Q(r) pseudized with  8 coefficients,  rinner =    0.800   0.800   0.800


     vdW kernel table read from file vdW_kernel_table
     MD5 check sum: 48e77a2e26edf626eeb0eaa751ad5cac

     atomic species   valence    mass     pseudopotential
        Au            11.00   196.96657     Au( 1.00)
        H              1.00     1.01000     H ( 1.00)
        O              6.00    16.00000     O ( 1.00)

     No symmetry found



   Cartesian axes

     site n.     atom                  positions (alat units)
         1           O   tau(   1) = (   0.4998324   0.3332216   0.7029927  )
         2           H   tau(   2) = (   0.4742046   0.2877277   0.6473696  )
         3           H   tau(   3) = (   0.5246755   0.2853639   0.7569454  )
         4           Au  tau(   4) = (   0.0000000   0.0000000   0.0000000  )
         5           Au  tau(   5) = (   0.3332217   0.0000000   0.0000000  )
         6           Au  tau(   6) = (   0.6664435   0.0000000   0.0000000  )
         7           Au  tau(   7) = (   0.1666109   0.1666109   0.0000000  )
         8           Au  tau(   8) = (   0.4998326   0.1666109   0.0000000  )
         9           Au  tau(   9) = (   0.8330542   0.1666109   0.0000000  )
        10           Au  tau(  10) = (   0.0000000   0.3332217   0.0000000  )
        11           Au  tau(  11) = (   0.3332217   0.3332217   0.0000000  )
        12           Au  tau(  12) = (   0.6664435   0.3332217   0.0000000  )
        13           Au  tau(  13) = (   0.1666109   0.4998326   0.0000000  )
        14           Au  tau(  14) = (   0.4998326   0.4998326   0.0000000  )
        15           Au  tau(  15) = (   0.8330542   0.4998326   0.0000000  )
        16           Au  tau(  16) = (   0.0000000   0.6664435   0.0000000  )
        17           Au  tau(  17) = (   0.3332217   0.6664435   0.0000000  )
        18           Au  tau(  18) = (   0.6664435   0.6664435   0.0000000  )
        19           Au  tau(  19) = (   0.1666109   0.8330542   0.0000000  )
        20           Au  tau(  20) = (   0.4998326   0.8330542   0.0000000  )
        21           Au  tau(  21) = (   0.8330542   0.8330542   0.0000000  )
        22           Au  tau(  22) = (   0.1666109   0.0000000   0.1666109  )
        23           Au  tau(  23) = (   0.4998326   0.0000000   0.1666109  )
        24           Au  tau(  24) = (   0.8330542   0.0000000   0.1666109  )
        25           Au  tau(  25) = (   0.0000000   0.1666109   0.1666109  )
        26           Au  tau(  26) = (   0.3332217   0.1666109   0.1666109  )
        27           Au  tau(  27) = (   0.6664435   0.1666109   0.1666109  )
        28           Au  tau(  28) = (   0.1666109   0.3332217   0.1666109  )
        29           Au  tau(  29) = (   0.4998326   0.3332217   0.1666109  )
        30           Au  tau(  30) = (   0.8330542   0.3332217   0.1666109  )
        31           Au  tau(  31) = (   0.0000000   0.4998326   0.1666109  )
        32           Au  tau(  32) = (   0.3332217   0.4998326   0.1666109  )
        33           Au  tau(  33) = (   0.6664435   0.4998326   0.1666109  )
        34           Au  tau(  34) = (   0.1666109   0.6664435   0.1666109  )
        35           Au  tau(  35) = (   0.4998326   0.6664435   0.1666109  )
        36           Au  tau(  36) = (   0.8330542   0.6664435   0.1666109  )
        37           Au  tau(  37) = (   0.0000000   0.8330542   0.1666109  )
        38           Au  tau(  38) = (   0.3332217   0.8330542   0.1666109  )
        39           Au  tau(  39) = (   0.6664435   0.8330542   0.1666109  )
        40           Au  tau(  40) = (  -0.0000182  -0.0000182   0.3335478  )
        41           Au  tau(  41) = (   0.3332215  -0.0000181   0.3335472  )
        42           Au  tau(  42) = (   0.6664447  -0.0000183   0.3335481  )
        43           Au  tau(  43) = (  -0.0000181   0.3332215   0.3335472  )
        44           Au  tau(  44) = (   0.3332215   0.3332215   0.3335468  )
        45           Au  tau(  45) = (   0.6664445   0.3332215   0.3335478  )
        46           Au  tau(  46) = (  -0.0000183   0.6664447   0.3335481  )
        47           Au  tau(  47) = (   0.3332215   0.6664445   0.3335478  )
        48           Au  tau(  48) = (   0.6664446   0.6664446   0.3335486  )
        49           Au  tau(  49) = (   0.1666097   0.1666097   0.3335483  )
        50           Au  tau(  50) = (   0.4998320   0.1666098   0.3335477  )
        51           Au  tau(  51) = (   0.8330732   0.1666096   0.3335481  )
        52           Au  tau(  52) = (   0.1666098   0.4998320   0.3335477  )
        53           Au  tau(  53) = (   0.4998321   0.4998321   0.3335470  )
        54           Au  tau(  54) = (   0.8330730   0.4998322   0.3335474  )
        55           Au  tau(  55) = (   0.1666096   0.8330732   0.3335481  )
        56           Au  tau(  56) = (   0.4998322   0.8330730   0.3335474  )
        57           Au  tau(  57) = (   0.8330731   0.8330731   0.3335478  )
        58           Au  tau(  58) = (   0.1666104  -0.0000111   0.4993095  )
        59           Au  tau(  59) = (   0.4998323  -0.0000112   0.4993099  )
        60           Au  tau(  60) = (   0.8330661  -0.0000111   0.4993009  )
        61           Au  tau(  61) = (  -0.0000111   0.1666104   0.4993095  )
        62           Au  tau(  62) = (   0.3332214   0.1666106   0.4993185  )
        63           Au  tau(  63) = (   0.6664437   0.1666106   0.4993187  )
        64           Au  tau(  64) = (   0.1666106   0.3332214   0.4993185  )
        65           Au  tau(  65) = (   0.4998324   0.3332216   0.4993185  )
        66           Au  tau(  66) = (   0.8330659   0.3332215   0.4993103  )
        67           Au  tau(  67) = (  -0.0000112   0.4998323   0.4993099  )
        68           Au  tau(  68) = (   0.3332216   0.4998324   0.4993185  )
        69           Au  tau(  69) = (   0.6664436   0.4998325   0.4993187  )
        70           Au  tau(  70) = (   0.1666106   0.6664437   0.4993187  )
        71           Au  tau(  71) = (   0.4998325   0.6664436   0.4993187  )
        72           Au  tau(  72) = (   0.8330658   0.6664438   0.4993102  )
        73           Au  tau(  73) = (  -0.0000111   0.8330661   0.4993009  )
        74           Au  tau(  74) = (   0.3332215   0.8330659   0.4993103  )
        75           Au  tau(  75) = (   0.6664438   0.8330658   0.4993102  )

     number of k points=     6  Marzari-Vanderbilt smearing, width (Ry)=  0.0200
                       cart. coord. in units 2pi/alat
        k(    1) = (   0.2500000   0.2500000   0.0833333), wk =   0.3333333
        k(    2) = (   0.2500000   0.2500000  -0.2500000), wk =   0.3333333
        k(    3) = (  -0.2500000  -0.2500000   0.0833333), wk =   0.3333333
        k(    4) = (  -0.2500000   0.2500000  -0.0833333), wk =   0.3333333
        k(    5) = (   0.2500000  -0.2500000  -0.0833333), wk =   0.3333333
        k(    6) = (  -0.2500000   0.2500000   0.2500000), wk =   0.3333333

     Dense  grid:  3792731 G-vectors     FFT dimensions: ( 160, 160, 320)

     Smooth grid:  1341081 G-vectors     FFT dimensions: ( 120, 120, 225)

     Largest allocated arrays     est. size (Mb)     dimensions
        Kohn-Sham Wavefunctions        38.58 Mb     (    5267,  480)
        NL pseudopotentials            76.03 Mb     (    5267,  946)
        Each V/rho on FFT grid          3.91 Mb     (  256000)
        Each G-vector array             0.90 Mb     (  118520)
        G-vector shells                 0.08 Mb     (   10286)
     Largest temporary arrays     est. size (Mb)     dimensions
        Auxiliary wavefunctions       154.31 Mb     (    5267, 1920)
        Each subspace H/S matrix       56.25 Mb     (    1920, 1920)
        Each <psi_i|beta_j> matrix      6.93 Mb     (     946,  480)
        Arrays for rho mixing          31.25 Mb     (  256000,    8)

     Initial potential from superposition of free atoms
     Check: negative starting charge=   -1.945107

     starting charge  799.16392, renormalised to  800.00000

     negative rho (up, down):  1.947E+00 0.000E+00


     ************************************************************************
     *
     * You are using vdW-DF for exchange-correlation in this calculation.
     * Please cite the following three references that made this development
     * possible:
     *
     *   M. Dion, H. Rydberg, E. Schroder, D. C. Langreth, and
     *   B. I. Lundqvist, Phys. Rev. Lett. 92, 246401 (2004).
     *
     *   T. Thonhauser, V. R. Cooper, S. Li, A. Puzder, P. Hyldgaard, and
     *   D. C. Langreth, Phys. Rev. B 76, 125112 (2007).
     *
     *   G. Roman-Perez and J. M. Soler, Phys. Rev. Lett. 103, 096102 (2009).
     *
     *
     * If you are using vdW-DF2, please also cite:
     *
     *   K. Lee, E. D. Murray, L. Kong, B. I. Lundqvist, and
     *   D. C. Langreth, Phys. Rev. B 82, 081101(R) (2010).
     *
     *
     * If you are calculating the stress with vdW-DF, please also cite:
     *
     *   R. Sabatini, E. Kucukbenli, B. Kolb, T. Thonhauser, and
     *   S. de Gironcoli, J. Phys.: Condens. Matter 24, 424209 (2012).
     *
     ************************************************************************

     Carrying out vdW-DF run using the following parameters:

     Nqs =      20    Nr_points =    1024   r_max =   100.000
     q_mesh =
               0.00001000     0.04494208     0.09755937     0.15916263
               0.23128650     0.31572767     0.41458969     0.53033537
               0.66584808     0.82450364     1.01025438     1.22772762
               1.48234092     1.78043706     2.12944203     2.53805004
               3.01644009     3.57652955     4.23227104     5.00000000

     Gradients computed in reciprocal space

     ************************************************************************


     Starting wfc are  654 randomized atomic wfcs

     total cpu time spent up to now is      129.0 secs

     Self-consistent Calculation

     iteration #  1     ecut=    50.00 Ry     beta=0.70
     Davidson diagonalization with overlap
     ethr =  1.00E-02,  avg # of iterations =  3.0

     Threshold (ethr) on eigenvalues was too large:
     Diagonalizing with lowered threshold

     Davidson diagonalization with overlap
     ethr =  4.17E-04,  avg # of iterations =  2.0

     negative rho (up, down):  1.947E+00 0.000E+00

     total cpu time spent up to now is      578.8 secs

     total energy              =   -7423.03700175 Ry
     Harris-Foulkes estimate   =   -7426.03530803 Ry
     estimated scf accuracy    <       3.70399885 Ry

     iteration #  2     ecut=    50.00 Ry     beta=0.70
     Davidson diagonalization with overlap
     ethr =  4.63E-04,  avg # of iterations = 11.3

     negative rho (up, down):  1.943E+00 0.000E+00

     total cpu time spent up to now is     1329.2 secs

     total energy              =   -7415.32180486 Ry
     Harris-Foulkes estimate   =   -7432.47715358 Ry
     estimated scf accuracy    <      88.96153205 Ry

     iteration #  3     ecut=    50.00 Ry     beta=0.70
     Davidson diagonalization with overlap
     ethr =  4.63E-04,  avg # of iterations =  6.0

     negative rho (up, down):  1.953E+00 0.000E+00

     total cpu time spent up to now is     1803.5 secs

     total energy              =   -7424.36001226 Ry
     Harris-Foulkes estimate   =   -7425.81090360 Ry
     estimated scf accuracy    <       5.60202505 Ry

     iteration #  4     ecut=    50.00 Ry     beta=0.70
     Davidson diagonalization with overlap
     ethr =  4.63E-04,  avg # of iterations =  6.2

     negative rho (up, down):  1.957E+00 0.000E+00

     total cpu time spent up to now is     2082.0 secs

     total energy              =   -7424.90002810 Ry
     Harris-Foulkes estimate   =   -7425.56525404 Ry
     estimated scf accuracy    <       3.73920624 Ry

     iteration #  5     ecut=    50.00 Ry     beta=0.70
     Davidson diagonalization with overlap
     ethr =  4.63E-04,  avg # of iterations =  5.0

     negative rho (up, down):  1.964E+00 0.000E+00

     total cpu time spent up to now is     2353.3 secs

     total energy              =   -7425.11333335 Ry
     Harris-Foulkes estimate   =   -7425.46195506 Ry
     estimated scf accuracy    <       2.49829946 Ry

     iteration #  6     ecut=    50.00 Ry     beta=0.70
     Davidson diagonalization with overlap
     ethr =  3.12E-04,  avg # of iterations =  2.8

     negative rho (up, down):  1.967E+00 0.000E+00

     total cpu time spent up to now is     2589.1 secs

     total energy              =   -7425.24314147 Ry
     Harris-Foulkes estimate   =   -7425.29534264 Ry
     estimated scf accuracy    <       0.18406597 Ry

     iteration #  7     ecut=    50.00 Ry     beta=0.70
     Davidson diagonalization with overlap
     ethr =  2.30E-05,  avg # of iterations =  5.3

     negative rho (up, down):  1.970E+00 0.000E+00

     total cpu time spent up to now is     2873.5 secs

     total energy              =   -7425.25021693 Ry
     Harris-Foulkes estimate   =   -7425.28853447 Ry
     estimated scf accuracy    <       0.19010798 Ry

     iteration #  8     ecut=    50.00 Ry     beta=0.70
     Davidson diagonalization with overlap
     ethr =  2.30E-05,  avg # of iterations =  3.0

     negative rho (up, down):  1.971E+00 0.000E+00

     total cpu time spent up to now is     3110.8 secs

     total energy              =   -7425.25769972 Ry
     Harris-Foulkes estimate   =   -7425.27472524 Ry
     estimated scf accuracy    <       0.06511938 Ry

     iteration #  9     ecut=    50.00 Ry     beta=0.70
     Davidson diagonalization with overlap
     ethr =  8.14E-06,  avg # of iterations = 13.7

     negative rho (up, down):  1.972E+00 0.000E+00

     total cpu time spent up to now is     3498.5 secs

     total energy              =   -7425.26097828 Ry
     Harris-Foulkes estimate   =   -7425.26851736 Ry
     estimated scf accuracy    <       0.02377300 Ry

     iteration # 10     ecut=    50.00 Ry     beta=0.70
     Davidson diagonalization with overlap
     ethr =  2.97E-06,  avg # of iterations =  4.7

     negative rho (up, down):  1.973E+00 0.000E+00

     total cpu time spent up to now is     3764.9 secs

     total energy              =   -7425.26340483 Ry
     Harris-Foulkes estimate   =   -7425.26526022 Ry
     estimated scf accuracy    <       0.00474620 Ry

     iteration # 11     ecut=    50.00 Ry     beta=0.70
     Davidson diagonalization with overlap
     ethr =  5.93E-07,  avg # of iterations =  7.7

     negative rho (up, down):  1.974E+00 0.000E+00

     total cpu time spent up to now is     4089.0 secs

     total energy              =   -7425.26406347 Ry
     Harris-Foulkes estimate   =   -7425.26476889 Ry
     estimated scf accuracy    <       0.00202680 Ry

     iteration # 12     ecut=    50.00 Ry     beta=0.70
     Davidson diagonalization with overlap
     ethr =  2.53E-07,  avg # of iterations =  2.0

     negative rho (up, down):  1.974E+00 0.000E+00

     total cpu time spent up to now is     4317.0 secs

     total energy              =   -7425.26412456 Ry
     Harris-Foulkes estimate   =   -7425.26457525 Ry
     estimated scf accuracy    <       0.00145170 Ry

     iteration # 13     ecut=    50.00 Ry     beta=0.70
     Davidson diagonalization with overlap
     ethr =  1.81E-07,  avg # of iterations =  3.7

     negative rho (up, down):  1.974E+00 0.000E+00

     total cpu time spent up to now is     4595.0 secs

     total energy              =   -7425.26390496 Ry
     Harris-Foulkes estimate   =   -7425.26495768 Ry
     estimated scf accuracy    <       0.00557762 Ry

     iteration # 14     ecut=    50.00 Ry     beta=0.70
     Davidson diagonalization with overlap
     ethr =  1.81E-07,  avg # of iterations =  3.0

     negative rho (up, down):  1.974E+00 0.000E+00

     total cpu time spent up to now is     4849.7 secs

     total energy              =   -7425.26439863 Ry
     Harris-Foulkes estimate   =   -7425.26442549 Ry
     estimated scf accuracy    <       0.00006901 Ry

     iteration # 15     ecut=    50.00 Ry     beta=0.70
     Davidson diagonalization with overlap
     ethr =  8.63E-09,  avg # of iterations =  3.0

     negative rho (up, down):  1.974E+00 0.000E+00

     total cpu time spent up to now is     5142.7 secs

     total energy              =   -7425.26438279 Ry
     Harris-Foulkes estimate   =   -7425.26444773 Ry
     estimated scf accuracy    <       0.00045704 Ry

     iteration # 16     ecut=    50.00 Ry     beta=0.70
     Davidson diagonalization with overlap
     ethr =  8.63E-09,  avg # of iterations =  2.0

     negative rho (up, down):  1.974E+00 0.000E+00

     total cpu time spent up to now is     5371.7 secs

     total energy              =   -7425.26440706 Ry
     Harris-Foulkes estimate   =   -7425.26443078 Ry
     estimated scf accuracy    <       0.00012989 Ry

     iteration # 17     ecut=    50.00 Ry     beta=0.70
     Davidson diagonalization with overlap
     ethr =  8.63E-09,  avg # of iterations =  2.0

     negative rho (up, down):  1.974E+00 0.000E+00

     total cpu time spent up to now is     5603.7 secs

     total energy              =   -7425.26441756 Ry
     Harris-Foulkes estimate   =   -7425.26442135 Ry
     estimated scf accuracy    <       0.00001530 Ry

     iteration # 18     ecut=    50.00 Ry     beta=0.70
     Davidson diagonalization with overlap
     ethr =  1.91E-09,  avg # of iterations =  2.0

     negative rho (up, down):  1.974E+00 0.000E+00

     total cpu time spent up to now is     5834.4 secs

     total energy              =   -7425.26441895 Ry
     Harris-Foulkes estimate   =   -7425.26442008 Ry
     estimated scf accuracy    <       0.00000388 Ry

     iteration # 19     ecut=    50.00 Ry     beta=0.70
     Davidson diagonalization with overlap
     ethr =  4.85E-10,  avg # of iterations =  2.0

     negative rho (up, down):  1.974E+00 0.000E+00

     total cpu time spent up to now is     6059.6 secs

     total energy              =   -7425.26441928 Ry
     Harris-Foulkes estimate   =   -7425.26441988 Ry
     estimated scf accuracy    <       0.00000233 Ry

     iteration # 20     ecut=    50.00 Ry     beta=0.70
     Davidson diagonalization with overlap
     ethr =  2.91E-10,  avg # of iterations =  2.0

     negative rho (up, down):  1.974E+00 0.000E+00

     total cpu time spent up to now is     6283.9 secs

     total energy              =   -7425.26441944 Ry
     Harris-Foulkes estimate   =   -7425.26441972 Ry
     estimated scf accuracy    <       0.00000088 Ry

     iteration # 21     ecut=    50.00 Ry     beta=0.70
     Davidson diagonalization with overlap
     ethr =  1.10E-10,  avg # of iterations =  2.0

     negative rho (up, down):  1.974E+00 0.000E+00

     total cpu time spent up to now is     6508.9 secs

     total energy              =   -7425.26441953 Ry
     Harris-Foulkes estimate   =   -7425.26441962 Ry
     estimated scf accuracy    <       0.00000023 Ry

     iteration # 22     ecut=    50.00 Ry     beta=0.70
     Davidson diagonalization with overlap
     ethr =  2.93E-11,  avg # of iterations =  3.0

     negative rho (up, down):  1.974E+00 0.000E+00

     total cpu time spent up to now is     6747.2 secs

     total energy              =   -7425.26441953 Ry
     Harris-Foulkes estimate   =   -7425.26441958 Ry
     estimated scf accuracy    <       0.00000008 Ry

     iteration # 23     ecut=    50.00 Ry     beta=0.70
     Davidson diagonalization with overlap
     ethr =  1.06E-11,  avg # of iterations =  2.0

     negative rho (up, down):  1.974E+00 0.000E+00

     total cpu time spent up to now is     6973.9 secs

     total energy              =   -7425.26441953 Ry
     Harris-Foulkes estimate   =   -7425.26441954 Ry
     estimated scf accuracy    <       0.00000003 Ry

     iteration # 24     ecut=    50.00 Ry     beta=0.70
     Davidson diagonalization with overlap
     ethr =  4.17E-12,  avg # of iterations =  2.5

     negative rho (up, down):  1.974E+00 0.000E+00

     total cpu time spent up to now is     7230.4 secs

     total energy              =   -7425.26441952 Ry
     Harris-Foulkes estimate   =   -7425.26441955 Ry
     estimated scf accuracy    <       0.00000006 Ry

     iteration # 25     ecut=    50.00 Ry     beta=0.70
     Davidson diagonalization with overlap
     ethr =  4.17E-12,  avg # of iterations =  2.0

     negative rho (up, down):  1.974E+00 0.000E+00

     total cpu time spent up to now is     7464.0 secs

     End of self-consistent calculation

          k = 0.2500 0.2500 0.0833 (167653 PWs)   bands (ev):

   -19.7945  -7.9527  -6.8073  -6.2807  -6.2785  -5.8507  -5.4416  -5.3490
    -5.3483  -5.1539  -5.1519  -5.0360  -5.0338  -4.9573  -4.9335  -4.8609
    -4.7770  -4.7719  -4.7333  -4.7327  -4.5744  -4.5569  -4.5551  -4.5540
    -4.5471  -4.4923  -4.4908  -4.4805  -4.4794  -4.4429  -4.4307  -4.4294
    -4.3878  -4.3877  -4.3574  -4.3540  -4.3072  -4.3009  -4.2931  -4.2905
    -4.2839  -4.2709  -4.2704  -4.2333  -4.2144  -4.2117  -4.2056  -4.2041
    -4.1742  -4.1248  -4.1126  -4.1073  -4.1063  -4.1035  -4.0950  -4.0927
    -4.0905  -4.0882  -4.0386  -4.0254  -3.9975  -3.9741  -3.9710  -3.9529
    -3.9383  -3.9283  -3.9169  -3.9126  -3.9117  -3.9065  -3.8981  -3.8562
    -3.8550  -3.8439  -3.8430  -3.7389  -3.7374  -3.7312  -3.7224  -3.6942
    -3.6934  -3.6699  -3.6426  -3.6401  -3.6121  -3.6114  -3.5920  -3.5900
    -3.5805  -3.5765  -3.5223  -3.5212  -3.5070  -3.4867  -3.4808  -3.4756
    -3.4742  -3.4704  -3.4477  -3.4460  -3.4113  -3.4091  -3.3941  -3.3855
    -3.3591  -3.3521  -3.3402  -3.3111  -3.3085  -3.2738  -3.2710  -3.2353
    -3.2275  -3.2269  -3.2142  -3.2116  -3.2082  -3.2074  -3.1753  -3.1588
    -3.1221  -3.1200  -3.1106  -3.1037  -3.1012  -3.0993  -3.0767  -3.0760
    -3.0577  -3.0555  -3.0527  -3.0282  -3.0270  -3.0194  -3.0179  -3.0144
    -2.9800  -2.9791  -2.9441  -2.9406  -2.9393  -2.9380  -2.9355  -2.8562
    -2.8517  -2.8474  -2.8446  -2.8415  -2.8407  -2.8387  -2.8362  -2.8344
    -2.8338  -2.8251  -2.8172  -2.8061  -2.8004  -2.7974  -2.7956  -2.7838
    -2.7806  -2.7430  -2.7422  -2.7394  -2.7359  -2.7338  -2.7172  -2.7157
    -2.7101  -2.7080  -2.7043  -2.6541  -2.6468  -2.6439  -2.6401  -2.6377
    -2.6345  -2.6094  -2.5581  -2.5491  -2.5481  -2.5435  -2.5361  -2.5323
    -2.5290  -2.5193  -2.5156  -2.4916  -2.4811  -2.4774  -2.4735  -2.4683
    -2.4677  -2.4347  -2.4319  -2.4245  -2.4190  -2.4182  -2.4163  -2.3785
    -2.3684  -2.3561  -2.3101  -2.3003  -2.2945  -2.2828  -2.2764  -2.2744
    -2.2346  -2.2252  -2.2083  -2.2019  -2.1827  -2.1738  -2.1696  -2.1546
    -2.1498  -2.1412  -2.1371  -2.1093  -2.0888  -2.0780  -2.0683  -2.0659
    -2.0641  -2.0579  -2.0553  -2.0441  -2.0398  -2.0369  -2.0338  -2.0299
    -2.0283  -2.0243  -2.0185  -2.0083  -2.0007  -1.9988  -1.9954  -1.9908
    -1.9876  -1.9757  -1.9679  -1.9612  -1.9535  -1.9523  -1.9448  -1.9216
    -1.8987  -1.8755  -1.8678  -1.8398  -1.8239  -1.8210  -1.8089  -1.8050
    -1.7876  -1.7828  -1.7764  -1.7728  -1.7698  -1.7691  -1.7654  -1.7482
    -1.7344  -1.7330  -1.7176  -1.6893  -1.6800  -1.6529  -1.6438  -1.6021
    -1.5988  -1.5858  -1.5668  -1.5588  -1.5573  -1.5448  -1.5374  -1.5286
    -1.5214  -1.5203  -1.5173  -1.5164  -1.5155  -1.5132  -1.5032  -1.4939
    -1.4890  -1.4717  -1.4659  -1.4505  -1.4439  -1.4259  -1.4182  -1.4161
    -1.4151  -1.4109  -1.4036  -1.3893  -1.3822  -1.3722  -1.3635  -1.3535
    -1.3521  -1.3349  -1.3251  -1.3088  -1.3051  -1.3001  -1.2915  -1.2642
    -1.2587  -1.2516  -1.2504  -1.2458  -1.2375  -1.2255  -1.2208  -1.2129
    -1.2032  -1.2002  -1.1948  -1.1892  -1.1888  -1.1792  -1.1755  -1.1649
    -1.1620  -1.1565  -1.1552  -1.1455  -1.1391  -1.1340  -1.1257  -1.0936
    -1.0908  -1.0886  -1.0831  -1.0824  -1.0740  -1.0468  -1.0286  -1.0260
    -1.0253  -1.0235  -1.0215  -1.0167  -1.0128  -1.0011  -0.9908  -0.9655
    -0.9588  -0.9578  -0.9542  -0.9364  -0.9348  -0.9250  -0.8976  -0.8876
    -0.8634  -0.8589  -0.8352  -0.8332  -0.8286  -0.8281  -0.8254  -0.8207
    -0.8180  -0.8174  -0.8121  -0.8109  -0.7821  -0.7810  -0.7634  -0.7607
    -0.7568  -0.7560  -0.7543  -0.7373  -0.7312  -0.4678  -0.4487  -0.3937
    -0.3756  -0.3544  -0.1958  -0.1317  -0.1288  -0.0858   0.1897   0.1958
     0.5197   0.5324   0.6167   0.6190   0.6592   0.6606   0.8047   0.8154
     0.9261   0.9308   1.0267   1.6164   1.6313   1.6342   1.6702   1.6783
     1.7204   1.7380   1.8038   1.8114   2.0092   2.0108   2.2502   2.3247
     2.3318   2.3430   2.7203   2.7339   2.7938   2.7953   2.8032   2.8047
     2.9511   2.9554   3.0046   3.0985   3.1054   3.3299   3.3328   3.4625
     3.4927   3.4946   3.7629   3.7675   3.8804   3.8937   3.8965   3.9503
     3.9821   4.0778   4.0832   4.3137   4.3205   4.4079   4.4132   4.5303
     4.5344   4.5550   4.5686   4.7003   5.0989   5.3552   5.3714   5.4545
     5.4582   5.5368   5.6418   5.6443   5.6633   5.7091   5.7436   5.7590
     5.7656   5.8016   5.8122   5.8552   6.0229   6.0994   6.1151   6.1207
     6.1343   6.1439   6.1535   6.1575   6.1650   6.1663   6.1920   6.2328

          k = 0.2500 0.2500-0.2500 (167588 PWs)   bands (ev):

   -19.7945  -7.9527  -6.8073  -6.2807  -6.2785  -5.8507  -5.4416  -5.3490
    -5.3483  -5.1539  -5.1519  -5.0360  -5.0338  -4.9573  -4.9336  -4.8609
    -4.7770  -4.7719  -4.7333  -4.7327  -4.5744  -4.5569  -4.5551  -4.5540
    -4.5471  -4.4923  -4.4908  -4.4805  -4.4794  -4.4429  -4.4307  -4.4294
    -4.3878  -4.3877  -4.3574  -4.3540  -4.3072  -4.3009  -4.2932  -4.2905
    -4.2839  -4.2709  -4.2704  -4.2333  -4.2144  -4.2117  -4.2056  -4.2041
    -4.1742  -4.1248  -4.1126  -4.1073  -4.1063  -4.1035  -4.0950  -4.0927
    -4.0905  -4.0882  -4.0386  -4.0254  -3.9975  -3.9741  -3.9710  -3.9529
    -3.9383  -3.9283  -3.9169  -3.9125  -3.9117  -3.9065  -3.8981  -3.8562
    -3.8550  -3.8439  -3.8430  -3.7389  -3.7374  -3.7312  -3.7224  -3.6942
    -3.6934  -3.6699  -3.6426  -3.6401  -3.6121  -3.6114  -3.5920  -3.5900
    -3.5805  -3.5765  -3.5223  -3.5212  -3.5070  -3.4867  -3.4808  -3.4756
    -3.4742  -3.4704  -3.4477  -3.4460  -3.4113  -3.4091  -3.3941  -3.3855
    -3.3591  -3.3521  -3.3402  -3.3111  -3.3085  -3.2738  -3.2710  -3.2353
    -3.2275  -3.2269  -3.2142  -3.2116  -3.2082  -3.2074  -3.1753  -3.1588
    -3.1221  -3.1200  -3.1106  -3.1037  -3.1012  -3.0993  -3.0767  -3.0760
    -3.0577  -3.0555  -3.0527  -3.0282  -3.0270  -3.0194  -3.0178  -3.0144
    -2.9800  -2.9791  -2.9441  -2.9406  -2.9393  -2.9380  -2.9355  -2.8562
    -2.8517  -2.8474  -2.8446  -2.8415  -2.8407  -2.8387  -2.8362  -2.8344
    -2.8338  -2.8251  -2.8172  -2.8061  -2.8004  -2.7974  -2.7956  -2.7837
    -2.7806  -2.7430  -2.7422  -2.7394  -2.7359  -2.7338  -2.7172  -2.7157
    -2.7101  -2.7080  -2.7043  -2.6541  -2.6468  -2.6439  -2.6401  -2.6377
    -2.6345  -2.6094  -2.5581  -2.5491  -2.5481  -2.5435  -2.5361  -2.5323
    -2.5290  -2.5193  -2.5156  -2.4916  -2.4811  -2.4773  -2.4735  -2.4683
    -2.4677  -2.4347  -2.4319  -2.4245  -2.4190  -2.4182  -2.4163  -2.3785
    -2.3684  -2.3561  -2.3101  -2.3003  -2.2945  -2.2828  -2.2764  -2.2744
    -2.2346  -2.2252  -2.2083  -2.2020  -2.1827  -2.1738  -2.1696  -2.1546
    -2.1498  -2.1412  -2.1371  -2.1093  -2.0888  -2.0780  -2.0683  -2.0659
    -2.0641  -2.0579  -2.0553  -2.0441  -2.0398  -2.0369  -2.0338  -2.0299
    -2.0283  -2.0243  -2.0185  -2.0083  -2.0007  -1.9988  -1.9954  -1.9908
    -1.9876  -1.9757  -1.9679  -1.9612  -1.9535  -1.9523  -1.9448  -1.9216
    -1.8987  -1.8755  -1.8678  -1.8398  -1.8239  -1.8210  -1.8089  -1.8050
    -1.7876  -1.7828  -1.7764  -1.7728  -1.7698  -1.7691  -1.7654  -1.7482
    -1.7344  -1.7330  -1.7176  -1.6893  -1.6800  -1.6529  -1.6438  -1.6021
    -1.5988  -1.5858  -1.5668  -1.5588  -1.5573  -1.5449  -1.5374  -1.5286
    -1.5214  -1.5203  -1.5173  -1.5164  -1.5155  -1.5132  -1.5032  -1.4939
    -1.4890  -1.4717  -1.4659  -1.4505  -1.4439  -1.4259  -1.4182  -1.4161
    -1.4151  -1.4109  -1.4036  -1.3893  -1.3822  -1.3722  -1.3635  -1.3535
    -1.3521  -1.3349  -1.3251  -1.3088  -1.3051  -1.3001  -1.2915  -1.2641
    -1.2586  -1.2516  -1.2504  -1.2458  -1.2375  -1.2255  -1.2208  -1.2129
    -1.2032  -1.2003  -1.1948  -1.1892  -1.1888  -1.1792  -1.1755  -1.1649
    -1.1620  -1.1565  -1.1552  -1.1455  -1.1391  -1.1340  -1.1257  -1.0936
    -1.0908  -1.0886  -1.0832  -1.0824  -1.0740  -1.0468  -1.0286  -1.0260
    -1.0253  -1.0235  -1.0214  -1.0167  -1.0128  -1.0011  -0.9908  -0.9655
    -0.9588  -0.9578  -0.9542  -0.9364  -0.9348  -0.9250  -0.8976  -0.8876
    -0.8634  -0.8589  -0.8352  -0.8332  -0.8286  -0.8281  -0.8255  -0.8207
    -0.8180  -0.8174  -0.8121  -0.8109  -0.7821  -0.7810  -0.7634  -0.7607
    -0.7568  -0.7560  -0.7543  -0.7373  -0.7312  -0.4678  -0.4487  -0.3937
    -0.3755  -0.3544  -0.1958  -0.1317  -0.1288  -0.0858   0.1897   0.1958
     0.5197   0.5324   0.6167   0.6190   0.6592   0.6606   0.8047   0.8154
     0.9262   0.9308   1.0267   1.6164   1.6313   1.6342   1.6702   1.6783
     1.7204   1.7380   1.8038   1.8114   2.0092   2.0108   2.2502   2.3247
     2.3318   2.3430   2.7203   2.7339   2.7938   2.7953   2.8032   2.8047
     2.9511   2.9554   3.0046   3.0985   3.1054   3.3299   3.3328   3.4625
     3.4927   3.4946   3.7630   3.7675   3.8804   3.8937   3.8965   3.9504
     3.9822   4.0778   4.0832   4.3137   4.3204   4.4079   4.4132   4.5303
     4.5344   4.5550   4.5686   4.7005   5.0917   5.3518   5.3676   5.4542
     5.4563   5.5328   5.6428   5.6448   5.6919   5.7230   5.7519   5.7591
     5.7651   5.8032   5.8122   5.8552   6.0427   6.0822   6.1125   6.1226
     6.1421   6.1462   6.1544   6.1629   6.1638   6.1673   6.2142   6.2422

          k =-0.2500-0.2500 0.0833 (167653 PWs)   bands (ev):

   -19.7945  -7.9527  -6.8073  -6.2807  -6.2785  -5.8507  -5.4416  -5.3490
    -5.3483  -5.1539  -5.1519  -5.0360  -5.0338  -4.9573  -4.9335  -4.8609
    -4.7770  -4.7719  -4.7333  -4.7327  -4.5744  -4.5569  -4.5551  -4.5540
    -4.5471  -4.4923  -4.4908  -4.4805  -4.4794  -4.4429  -4.4307  -4.4294
    -4.3878  -4.3877  -4.3574  -4.3540  -4.3072  -4.3009  -4.2931  -4.2905
    -4.2839  -4.2709  -4.2704  -4.2333  -4.2144  -4.2117  -4.2056  -4.2041
    -4.1742  -4.1248  -4.1126  -4.1073  -4.1063  -4.1035  -4.0950  -4.0927
    -4.0905  -4.0882  -4.0386  -4.0254  -3.9975  -3.9741  -3.9710  -3.9529
    -3.9383  -3.9283  -3.9169  -3.9126  -3.9117  -3.9065  -3.8981  -3.8562
    -3.8550  -3.8439  -3.8430  -3.7389  -3.7374  -3.7312  -3.7224  -3.6942
    -3.6934  -3.6699  -3.6426  -3.6401  -3.6121  -3.6114  -3.5920  -3.5900
    -3.5805  -3.5765  -3.5223  -3.5212  -3.5070  -3.4867  -3.4808  -3.4756
    -3.4742  -3.4704  -3.4477  -3.4460  -3.4113  -3.4091  -3.3941  -3.3855
    -3.3591  -3.3521  -3.3402  -3.3111  -3.3085  -3.2738  -3.2710  -3.2353
    -3.2275  -3.2269  -3.2142  -3.2116  -3.2082  -3.2074  -3.1753  -3.1588
    -3.1221  -3.1200  -3.1106  -3.1037  -3.1012  -3.0993  -3.0767  -3.0760
    -3.0577  -3.0555  -3.0527  -3.0282  -3.0270  -3.0194  -3.0179  -3.0144
    -2.9800  -2.9791  -2.9441  -2.9406  -2.9393  -2.9380  -2.9355  -2.8562
    -2.8517  -2.8474  -2.8446  -2.8415  -2.8407  -2.8387  -2.8362  -2.8344
    -2.8338  -2.8251  -2.8172  -2.8061  -2.8004  -2.7974  -2.7956  -2.7838
    -2.7806  -2.7430  -2.7422  -2.7394  -2.7359  -2.7338  -2.7172  -2.7157
    -2.7101  -2.7080  -2.7043  -2.6541  -2.6468  -2.6439  -2.6401  -2.6377
    -2.6345  -2.6094  -2.5581  -2.5491  -2.5481  -2.5435  -2.5361  -2.5323
    -2.5290  -2.5193  -2.5156  -2.4916  -2.4811  -2.4774  -2.4735  -2.4683
    -2.4677  -2.4347  -2.4319  -2.4245  -2.4190  -2.4182  -2.4163  -2.3785
    -2.3684  -2.3561  -2.3101  -2.3003  -2.2945  -2.2828  -2.2764  -2.2744
    -2.2346  -2.2252  -2.2083  -2.2019  -2.1827  -2.1738  -2.1696  -2.1546
    -2.1498  -2.1412  -2.1371  -2.1093  -2.0888  -2.0780  -2.0683  -2.0659
    -2.0641  -2.0579  -2.0553  -2.0441  -2.0398  -2.0369  -2.0338  -2.0299
    -2.0283  -2.0243  -2.0185  -2.0083  -2.0007  -1.9988  -1.9954  -1.9908
    -1.9876  -1.9757  -1.9679  -1.9612  -1.9535  -1.9523  -1.9448  -1.9216
    -1.8987  -1.8755  -1.8678  -1.8398  -1.8239  -1.8210  -1.8089  -1.8050
    -1.7876  -1.7828  -1.7764  -1.7728  -1.7698  -1.7691  -1.7654  -1.7482
    -1.7344  -1.7330  -1.7176  -1.6893  -1.6800  -1.6529  -1.6438  -1.6021
    -1.5988  -1.5858  -1.5668  -1.5588  -1.5573  -1.5448  -1.5374  -1.5286
    -1.5214  -1.5203  -1.5173  -1.5164  -1.5155  -1.5132  -1.5032  -1.4939
    -1.4890  -1.4717  -1.4659  -1.4505  -1.4439  -1.4259  -1.4182  -1.4161
    -1.4151  -1.4109  -1.4036  -1.3893  -1.3822  -1.3722  -1.3635  -1.3535
    -1.3521  -1.3349  -1.3251  -1.3088  -1.3051  -1.3001  -1.2915  -1.2642
    -1.2587  -1.2516  -1.2504  -1.2458  -1.2375  -1.2255  -1.2208  -1.2129
    -1.2032  -1.2002  -1.1948  -1.1892  -1.1888  -1.1792  -1.1755  -1.1649
    -1.1620  -1.1565  -1.1552  -1.1455  -1.1391  -1.1340  -1.1257  -1.0936
    -1.0908  -1.0886  -1.0831  -1.0824  -1.0740  -1.0468  -1.0286  -1.0260
    -1.0253  -1.0235  -1.0215  -1.0167  -1.0128  -1.0011  -0.9908  -0.9655
    -0.9588  -0.9578  -0.9542  -0.9364  -0.9348  -0.9250  -0.8976  -0.8876
    -0.8634  -0.8589  -0.8352  -0.8332  -0.8286  -0.8281  -0.8254  -0.8207
    -0.8180  -0.8174  -0.8121  -0.8109  -0.7821  -0.7810  -0.7634  -0.7607
    -0.7568  -0.7560  -0.7543  -0.7373  -0.7312  -0.4678  -0.4487  -0.3937
    -0.3756  -0.3544  -0.1958  -0.1317  -0.1288  -0.0858   0.1897   0.1958
     0.5197   0.5324   0.6167   0.6190   0.6592   0.6606   0.8047   0.8154
     0.9261   0.9308   1.0267   1.6164   1.6313   1.6342   1.6702   1.6783
     1.7204   1.7380   1.8038   1.8114   2.0092   2.0108   2.2502   2.3247
     2.3318   2.3430   2.7203   2.7339   2.7938   2.7953   2.8032   2.8047
     2.9511   2.9554   3.0046   3.0985   3.1054   3.3299   3.3328   3.4625
     3.4927   3.4946   3.7629   3.7675   3.8804   3.8937   3.8965   3.9503
     3.9821   4.0777   4.0832   4.3137   4.3205   4.4079   4.4132   4.5303
     4.5344   4.5550   4.5686   4.7003   5.0986   5.3552   5.3724   5.4546
     5.4580   5.5338   5.6410   5.6436   5.6685   5.7097   5.7434   5.7591
     5.7657   5.8021   5.8122   5.8553   6.0241   6.0996   6.1128   6.1214
     6.1348   6.1439   6.1535   6.1574   6.1646   6.1663   6.1830   6.2291

          k =-0.2500 0.2500-0.0833 (167653 PWs)   bands (ev):

   -19.7945  -7.9527  -6.8073  -6.2810  -6.2783  -5.8505  -5.4416  -5.3492
    -5.3479  -5.1541  -5.1521  -5.0362  -5.0337  -4.9570  -4.9335  -4.8608
    -4.7776  -4.7718  -4.7334  -4.7326  -4.5747  -4.5559  -4.5550  -4.5542
    -4.5472  -4.4925  -4.4908  -4.4800  -4.4796  -4.4427  -4.4309  -4.4295
    -4.3880  -4.3874  -4.3568  -4.3546  -4.3057  -4.3015  -4.2937  -4.2900
    -4.2842  -4.2711  -4.2703  -4.2341  -4.2153  -4.2116  -4.2048  -4.2041
    -4.1748  -4.1263  -4.1088  -4.1072  -4.1064  -4.1057  -4.0950  -4.0941
    -4.0906  -4.0883  -4.0352  -4.0270  -3.9973  -3.9742  -3.9709  -3.9581
    -3.9380  -3.9278  -3.9178  -3.9123  -3.9119  -3.9064  -3.8905  -3.8559
    -3.8520  -3.8437  -3.8431  -3.7389  -3.7379  -3.7318  -3.7291  -3.6940
    -3.6935  -3.6699  -3.6414  -3.6399  -3.6121  -3.6116  -3.5942  -3.5906
    -3.5809  -3.5769  -3.5226  -3.5214  -3.5015  -3.4868  -3.4803  -3.4749
    -3.4743  -3.4705  -3.4484  -3.4471  -3.4103  -3.4088  -3.3937  -3.3872
    -3.3581  -3.3531  -3.3400  -3.3093  -3.3081  -3.2738  -3.2714  -3.2365
    -3.2274  -3.2269  -3.2150  -3.2129  -3.2079  -3.2073  -3.1752  -3.1589
    -3.1217  -3.1199  -3.1108  -3.1038  -3.1007  -3.0995  -3.0773  -3.0760
    -3.0572  -3.0554  -3.0529  -3.0278  -3.0262  -3.0196  -3.0170  -3.0146
    -2.9793  -2.9785  -2.9452  -2.9418  -2.9395  -2.9377  -2.9357  -2.8566
    -2.8501  -2.8477  -2.8440  -2.8419  -2.8406  -2.8377  -2.8363  -2.8345
    -2.8338  -2.8251  -2.8172  -2.8066  -2.7989  -2.7976  -2.7960  -2.7838
    -2.7794  -2.7445  -2.7412  -2.7395  -2.7366  -2.7342  -2.7175  -2.7159
    -2.7095  -2.7082  -2.7042  -2.6547  -2.6467  -2.6425  -2.6399  -2.6368
    -2.6352  -2.6099  -2.5563  -2.5497  -2.5482  -2.5434  -2.5350  -2.5328
    -2.5291  -2.5198  -2.5156  -2.4962  -2.4788  -2.4776  -2.4720  -2.4691
    -2.4683  -2.4359  -2.4310  -2.4244  -2.4196  -2.4183  -2.4166  -2.3823
    -2.3677  -2.3570  -2.3107  -2.2999  -2.2940  -2.2821  -2.2766  -2.2748
    -2.2367  -2.2255  -2.2057  -2.2025  -2.1791  -2.1758  -2.1694  -2.1551
    -2.1485  -2.1408  -2.1360  -2.1082  -2.0866  -2.0816  -2.0672  -2.0662
    -2.0640  -2.0570  -2.0559  -2.0419  -2.0397  -2.0374  -2.0345  -2.0302
    -2.0281  -2.0242  -2.0201  -2.0089  -1.9993  -1.9984  -1.9941  -1.9906
    -1.9876  -1.9753  -1.9692  -1.9605  -1.9534  -1.9509  -1.9455  -1.9197
    -1.8960  -1.8753  -1.8650  -1.8398  -1.8237  -1.8210  -1.8124  -1.8053
    -1.7886  -1.7805  -1.7756  -1.7733  -1.7702  -1.7696  -1.7672  -1.7504
    -1.7344  -1.7330  -1.7203  -1.6901  -1.6795  -1.6529  -1.6452  -1.6023
    -1.5979  -1.5861  -1.5679  -1.5588  -1.5578  -1.5426  -1.5376  -1.5250
    -1.5218  -1.5206  -1.5186  -1.5165  -1.5148  -1.5132  -1.5030  -1.4953
    -1.4892  -1.4712  -1.4664  -1.4506  -1.4470  -1.4232  -1.4198  -1.4160
    -1.4153  -1.4098  -1.4028  -1.3917  -1.3809  -1.3733  -1.3638  -1.3529
    -1.3514  -1.3348  -1.3250  -1.3107  -1.3046  -1.3001  -1.2907  -1.2608
    -1.2590  -1.2520  -1.2501  -1.2475  -1.2371  -1.2247  -1.2213  -1.2142
    -1.2026  -1.2010  -1.1941  -1.1903  -1.1893  -1.1794  -1.1772  -1.1645
    -1.1612  -1.1564  -1.1555  -1.1440  -1.1402  -1.1344  -1.1262  -1.0938
    -1.0896  -1.0876  -1.0834  -1.0823  -1.0744  -1.0472  -1.0286  -1.0264
    -1.0257  -1.0245  -1.0225  -1.0169  -1.0113  -1.0012  -0.9904  -0.9664
    -0.9588  -0.9578  -0.9534  -0.9361  -0.9347  -0.9252  -0.8989  -0.8877
    -0.8632  -0.8589  -0.8339  -0.8331  -0.8289  -0.8283  -0.8254  -0.8205
    -0.8181  -0.8170  -0.8127  -0.8108  -0.7820  -0.7809  -0.7646  -0.7607
    -0.7564  -0.7560  -0.7549  -0.7375  -0.7289  -0.4676  -0.4487  -0.3956
    -0.3725  -0.3545  -0.1945  -0.1305  -0.1293  -0.0870   0.1880   0.1974
     0.5182   0.5333   0.6171   0.6196   0.6582   0.6630   0.8028   0.8174
     0.9259   0.9304   1.0269   1.6155   1.6313   1.6342   1.6649   1.6782
     1.7176   1.7428   1.8024   1.8144   2.0077   2.0127   2.2494   2.3221
     2.3347   2.3420   2.7170   2.7341   2.7919   2.7981   2.8031   2.8051
     2.9523   2.9547   3.0035   3.0980   3.1110   3.3282   3.3405   3.4625
     3.4898   3.4959   3.7621   3.7704   3.8738   3.8946   3.8972   3.9521
     3.9826   4.0773   4.0837   4.3154   4.3199   4.4031   4.4153   4.5215
     4.5363   4.5515   4.5716   4.6997   5.1010   5.3487   5.3738   5.4518
     5.4631   5.5400   5.6423   5.6482   5.6709   5.7128   5.7318   5.7546
     5.7674   5.8093   5.8115   5.8581   6.0195   6.1029   6.1100   6.1243
     6.1350   6.1455   6.1493   6.1551   6.1584   6.1666   6.1909   6.2203

          k = 0.2500-0.2500-0.0833 (167653 PWs)   bands (ev):

   -19.7945  -7.9527  -6.8073  -6.2810  -6.2783  -5.8505  -5.4416  -5.3492
    -5.3479  -5.1541  -5.1521  -5.0362  -5.0337  -4.9570  -4.9335  -4.8608
    -4.7776  -4.7718  -4.7334  -4.7326  -4.5747  -4.5559  -4.5550  -4.5542
    -4.5472  -4.4925  -4.4908  -4.4800  -4.4796  -4.4427  -4.4309  -4.4295
    -4.3880  -4.3874  -4.3568  -4.3546  -4.3057  -4.3015  -4.2937  -4.2900
    -4.2842  -4.2711  -4.2703  -4.2341  -4.2153  -4.2116  -4.2048  -4.2041
    -4.1748  -4.1263  -4.1088  -4.1072  -4.1064  -4.1057  -4.0950  -4.0941
    -4.0906  -4.0883  -4.0352  -4.0270  -3.9973  -3.9742  -3.9709  -3.9581
    -3.9380  -3.9278  -3.9178  -3.9123  -3.9119  -3.9064  -3.8905  -3.8559
    -3.8520  -3.8437  -3.8431  -3.7389  -3.7379  -3.7318  -3.7291  -3.6940
    -3.6935  -3.6699  -3.6414  -3.6399  -3.6121  -3.6116  -3.5942  -3.5906
    -3.5809  -3.5769  -3.5226  -3.5214  -3.5015  -3.4868  -3.4803  -3.4749
    -3.4743  -3.4705  -3.4484  -3.4471  -3.4103  -3.4088  -3.3937  -3.3872
    -3.3581  -3.3531  -3.3400  -3.3093  -3.3081  -3.2738  -3.2714  -3.2365
    -3.2274  -3.2269  -3.2150  -3.2129  -3.2079  -3.2073  -3.1752  -3.1589
    -3.1217  -3.1199  -3.1108  -3.1038  -3.1007  -3.0995  -3.0773  -3.0760
    -3.0572  -3.0554  -3.0529  -3.0278  -3.0262  -3.0196  -3.0170  -3.0146
    -2.9793  -2.9785  -2.9452  -2.9418  -2.9395  -2.9377  -2.9357  -2.8566
    -2.8501  -2.8477  -2.8440  -2.8419  -2.8406  -2.8377  -2.8363  -2.8345
    -2.8338  -2.8251  -2.8172  -2.8066  -2.7989  -2.7976  -2.7960  -2.7838
    -2.7794  -2.7445  -2.7412  -2.7395  -2.7366  -2.7342  -2.7175  -2.7159
    -2.7095  -2.7082  -2.7042  -2.6547  -2.6467  -2.6425  -2.6399  -2.6368
    -2.6352  -2.6099  -2.5563  -2.5497  -2.5482  -2.5434  -2.5350  -2.5328
    -2.5291  -2.5198  -2.5156  -2.4962  -2.4788  -2.4776  -2.4720  -2.4691
    -2.4683  -2.4359  -2.4310  -2.4244  -2.4196  -2.4183  -2.4166  -2.3823
    -2.3677  -2.3570  -2.3107  -2.2999  -2.2940  -2.2821  -2.2766  -2.2748
    -2.2367  -2.2255  -2.2057  -2.2025  -2.1791  -2.1758  -2.1694  -2.1551
    -2.1485  -2.1408  -2.1360  -2.1082  -2.0866  -2.0816  -2.0672  -2.0662
    -2.0640  -2.0570  -2.0559  -2.0419  -2.0397  -2.0374  -2.0345  -2.0302
    -2.0281  -2.0242  -2.0201  -2.0089  -1.9993  -1.9984  -1.9941  -1.9906
    -1.9876  -1.9753  -1.9692  -1.9605  -1.9534  -1.9509  -1.9455  -1.9197
    -1.8960  -1.8753  -1.8650  -1.8398  -1.8237  -1.8210  -1.8124  -1.8053
    -1.7886  -1.7805  -1.7756  -1.7733  -1.7702  -1.7696  -1.7672  -1.7504
    -1.7344  -1.7330  -1.7203  -1.6901  -1.6795  -1.6529  -1.6452  -1.6023
    -1.5979  -1.5861  -1.5679  -1.5588  -1.5578  -1.5426  -1.5376  -1.5250
    -1.5218  -1.5206  -1.5186  -1.5165  -1.5148  -1.5132  -1.5030  -1.4953
    -1.4892  -1.4712  -1.4664  -1.4506  -1.4470  -1.4232  -1.4198  -1.4160
    -1.4153  -1.4098  -1.4028  -1.3917  -1.3809  -1.3733  -1.3638  -1.3529
    -1.3514  -1.3348  -1.3250  -1.3107  -1.3046  -1.3001  -1.2907  -1.2608
    -1.2590  -1.2520  -1.2501  -1.2475  -1.2371  -1.2247  -1.2213  -1.2142
    -1.2026  -1.2010  -1.1941  -1.1903  -1.1893  -1.1794  -1.1772  -1.1645
    -1.1612  -1.1564  -1.1555  -1.1440  -1.1402  -1.1344  -1.1262  -1.0938
    -1.0896  -1.0876  -1.0834  -1.0823  -1.0744  -1.0472  -1.0286  -1.0264
    -1.0257  -1.0245  -1.0225  -1.0169  -1.0113  -1.0012  -0.9904  -0.9664
    -0.9588  -0.9578  -0.9534  -0.9361  -0.9347  -0.9252  -0.8989  -0.8877
    -0.8632  -0.8589  -0.8339  -0.8331  -0.8289  -0.8283  -0.8254  -0.8205
    -0.8181  -0.8170  -0.8127  -0.8108  -0.7820  -0.7809  -0.7646  -0.7607
    -0.7564  -0.7560  -0.7549  -0.7375  -0.7289  -0.4676  -0.4487  -0.3956
    -0.3725  -0.3545  -0.1945  -0.1305  -0.1293  -0.0870   0.1880   0.1974
     0.5182   0.5333   0.6171   0.6196   0.6582   0.6630   0.8028   0.8174
     0.9259   0.9304   1.0269   1.6155   1.6313   1.6342   1.6649   1.6782
     1.7176   1.7428   1.8024   1.8144   2.0077   2.0127   2.2494   2.3221
     2.3347   2.3420   2.7170   2.7341   2.7919   2.7981   2.8031   2.8051
     2.9523   2.9547   3.0035   3.0980   3.1110   3.3282   3.3405   3.4625
     3.4898   3.4959   3.7621   3.7704   3.8738   3.8946   3.8972   3.9521
     3.9826   4.0773   4.0837   4.3154   4.3199   4.4031   4.4153   4.5215
     4.5363   4.5515   4.5716   4.6996   5.1013   5.3487   5.3728   5.4519
     5.4633   5.5429   5.6421   5.6485   5.6680   5.7114   5.7318   5.7542
     5.7674   5.8092   5.8115   5.8580   6.0180   6.1014   6.1094   6.1242
     6.1365   6.1465   6.1497   6.1551   6.1585   6.1665   6.2010   6.2283

          k =-0.2500 0.2500 0.2500 (167588 PWs)   bands (ev):

   -19.7945  -7.9527  -6.8073  -6.2810  -6.2783  -5.8505  -5.4416  -5.3492
    -5.3479  -5.1541  -5.1521  -5.0362  -5.0337  -4.9570  -4.9335  -4.8608
    -4.7776  -4.7718  -4.7334  -4.7326  -4.5747  -4.5559  -4.5550  -4.5542
    -4.5472  -4.4925  -4.4908  -4.4800  -4.4796  -4.4427  -4.4309  -4.4295
    -4.3880  -4.3874  -4.3568  -4.3546  -4.3057  -4.3015  -4.2937  -4.2900
    -4.2842  -4.2711  -4.2703  -4.2341  -4.2153  -4.2116  -4.2048  -4.2041
    -4.1748  -4.1263  -4.1088  -4.1072  -4.1064  -4.1057  -4.0950  -4.0941
    -4.0906  -4.0883  -4.0352  -4.0270  -3.9973  -3.9743  -3.9709  -3.9581
    -3.9380  -3.9278  -3.9178  -3.9123  -3.9118  -3.9064  -3.8905  -3.8559
    -3.8520  -3.8437  -3.8431  -3.7389  -3.7379  -3.7318  -3.7291  -3.6940
    -3.6935  -3.6699  -3.6414  -3.6399  -3.6121  -3.6116  -3.5942  -3.5906
    -3.5809  -3.5769  -3.5226  -3.5214  -3.5015  -3.4868  -3.4803  -3.4749
    -3.4743  -3.4705  -3.4484  -3.4471  -3.4103  -3.4088  -3.3937  -3.3872
    -3.3581  -3.3531  -3.3401  -3.3093  -3.3081  -3.2738  -3.2714  -3.2365
    -3.2274  -3.2269  -3.2150  -3.2129  -3.2079  -3.2073  -3.1752  -3.1590
    -3.1216  -3.1198  -3.1108  -3.1037  -3.1007  -3.0995  -3.0773  -3.0760
    -3.0572  -3.0554  -3.0529  -3.0278  -3.0262  -3.0196  -3.0170  -3.0146
    -2.9793  -2.9785  -2.9452  -2.9418  -2.9395  -2.9377  -2.9357  -2.8567
    -2.8501  -2.8477  -2.8440  -2.8419  -2.8407  -2.8377  -2.8363  -2.8345
    -2.8338  -2.8251  -2.8172  -2.8066  -2.7989  -2.7976  -2.7960  -2.7838
    -2.7794  -2.7445  -2.7412  -2.7395  -2.7366  -2.7342  -2.7175  -2.7159
    -2.7095  -2.7082  -2.7042  -2.6547  -2.6467  -2.6425  -2.6399  -2.6368
    -2.6351  -2.6099  -2.5563  -2.5497  -2.5482  -2.5434  -2.5350  -2.5328
    -2.5291  -2.5198  -2.5156  -2.4962  -2.4788  -2.4776  -2.4720  -2.4691
    -2.4683  -2.4359  -2.4310  -2.4244  -2.4196  -2.4183  -2.4166  -2.3824
    -2.3677  -2.3570  -2.3106  -2.2999  -2.2940  -2.2821  -2.2766  -2.2748
    -2.2367  -2.2255  -2.2057  -2.2025  -2.1791  -2.1757  -2.1694  -2.1551
    -2.1485  -2.1408  -2.1360  -2.1082  -2.0866  -2.0816  -2.0672  -2.0662
    -2.0639  -2.0570  -2.0559  -2.0419  -2.0397  -2.0374  -2.0345  -2.0302
    -2.0281  -2.0242  -2.0201  -2.0089  -1.9993  -1.9984  -1.9941  -1.9906
    -1.9876  -1.9753  -1.9692  -1.9605  -1.9534  -1.9509  -1.9455  -1.9197
    -1.8960  -1.8753  -1.8650  -1.8398  -1.8237  -1.8210  -1.8123  -1.8053
    -1.7886  -1.7805  -1.7756  -1.7733  -1.7702  -1.7696  -1.7672  -1.7504
    -1.7344  -1.7330  -1.7203  -1.6901  -1.6795  -1.6529  -1.6452  -1.6023
    -1.5979  -1.5861  -1.5679  -1.5588  -1.5578  -1.5426  -1.5376  -1.5250
    -1.5218  -1.5206  -1.5186  -1.5165  -1.5148  -1.5132  -1.5030  -1.4953
    -1.4892  -1.4712  -1.4664  -1.4506  -1.4470  -1.4232  -1.4198  -1.4160
    -1.4153  -1.4097  -1.4028  -1.3917  -1.3809  -1.3733  -1.3638  -1.3529
    -1.3514  -1.3348  -1.3250  -1.3107  -1.3046  -1.3001  -1.2907  -1.2608
    -1.2590  -1.2520  -1.2500  -1.2475  -1.2371  -1.2247  -1.2213  -1.2142
    -1.2026  -1.2010  -1.1941  -1.1903  -1.1893  -1.1794  -1.1772  -1.1645
    -1.1612  -1.1564  -1.1555  -1.1440  -1.1402  -1.1344  -1.1262  -1.0938
    -1.0896  -1.0876  -1.0834  -1.0823  -1.0745  -1.0472  -1.0286  -1.0264
    -1.0257  -1.0245  -1.0225  -1.0169  -1.0112  -1.0012  -0.9904  -0.9664
    -0.9588  -0.9578  -0.9534  -0.9361  -0.9347  -0.9252  -0.8989  -0.8877
    -0.8632  -0.8589  -0.8339  -0.8331  -0.8289  -0.8283  -0.8254  -0.8205
    -0.8181  -0.8170  -0.8127  -0.8108  -0.7820  -0.7809  -0.7646  -0.7607
    -0.7564  -0.7560  -0.7549  -0.7375  -0.7289  -0.4676  -0.4487  -0.3956
    -0.3725  -0.3545  -0.1945  -0.1305  -0.1293  -0.0870   0.1880   0.1974
     0.5182   0.5333   0.6171   0.6196   0.6582   0.6630   0.8028   0.8174
     0.9259   0.9304   1.0269   1.6155   1.6313   1.6342   1.6649   1.6782
     1.7176   1.7428   1.8024   1.8144   2.0077   2.0127   2.2494   2.3221
     2.3347   2.3420   2.7170   2.7341   2.7919   2.7981   2.8031   2.8051
     2.9523   2.9547   3.0036   3.0980   3.1110   3.3282   3.3405   3.4625
     3.4898   3.4959   3.7621   3.7704   3.8738   3.8946   3.8972   3.9521
     3.9827   4.0773   4.0837   4.3154   4.3199   4.4031   4.4153   4.5215
     4.5363   4.5515   4.5716   4.6998   5.0940   5.3466   5.3682   5.4517
     5.4605   5.5409   5.6424   5.6493   5.6939   5.7113   5.7510   5.7565
     5.7713   5.8095   5.8116   5.8580   6.0400   6.0808   6.1162   6.1232
     6.1301   6.1491   6.1523   6.1575   6.1652   6.1739   6.2093   6.2504

     the Fermi energy is     0.8808 ev

!    total energy              =   -7425.26441951 Ry
     Harris-Foulkes estimate   =   -7425.26441953 Ry
     estimated scf accuracy    <          9.4E-09 Ry

     The total energy is the sum of the following terms:

     one-electron contribution =  -48864.05037260 Ry
     hartree contribution      =   24983.12129566 Ry
     xc contribution           =   -3604.28093163 Ry
     ewald contribution        =   20059.94798356 Ry
     smearing contrib. (-TS)   =      -0.00239450 Ry

     convergence has been achieved in  25 iterations

     Writing output data file 4398438.save

     init_run     :    118.29s CPU    127.67s WALL (       1 calls)
     electrons    :   6866.78s CPU   7335.80s WALL (       1 calls)

     Called by init_run:
     wfcinit      :     80.83s CPU     88.72s WALL (       1 calls)
     potinit      :      7.86s CPU      8.47s WALL (       1 calls)

     Called by electrons:
     c_bands      :   5085.97s CPU   5460.11s WALL (      26 calls)
     sum_band     :   1121.76s CPU   1196.27s WALL (      26 calls)
     v_of_rho     :    129.32s CPU    141.63s WALL (      26 calls)
     newd         :    548.52s CPU    555.79s WALL (      26 calls)
     mix_rho      :      3.62s CPU      4.05s WALL (      26 calls)
     vdW_energy   :     11.90s CPU     13.48s WALL (      26 calls)
     vdW_ffts     :     65.53s CPU     71.63s WALL (      52 calls)
     vdW_v        :     15.98s CPU     16.90s WALL (      26 calls)

     Called by c_bands:
     init_us_2    :     20.91s CPU     21.32s WALL (     318 calls)
     cegterg      :   5035.04s CPU   5407.87s WALL (     156 calls)

     Called by *egterg:
     h_psi        :   2303.47s CPU   2642.34s WALL (     785 calls)
     s_psi        :    341.80s CPU    343.64s WALL (     785 calls)
     g_psi        :      4.21s CPU      4.24s WALL (     623 calls)
     cdiaghg      :   1372.12s CPU   1376.90s WALL (     773 calls)

     Called by h_psi:
     add_vuspsi   :    346.78s CPU    348.76s WALL (     785 calls)

     General routines
     calbec       :    486.76s CPU    489.89s WALL (     941 calls)
     fft          :    143.45s CPU    153.85s WALL (    1716 calls)
     ffts         :      1.73s CPU      1.99s WALL (      52 calls)
     fftw         :   1458.42s CPU   1764.28s WALL (  423122 calls)
     interpolate  :      5.05s CPU      5.80s WALL (      52 calls)
     davcio       :      0.00s CPU      0.33s WALL (       6 calls)

     Parallel routines
     fft_scatter  :   1036.50s CPU   1258.96s WALL (  424890 calls)

     PWSCF        :     1h56m CPU        2h 4m WALL


   This run was terminated on:   1:15:57  25Jun2015            

=------------------------------------------------------------------------------=
   JOB DONE.
=------------------------------------------------------------------------------=
