Setting SGE environment for SCC

     Program PWSCF v.5.1.2 starts on 25Jun2015 at  2:20:27 

     This program is part of the open-source Quantum ESPRESSO suite
     for quantum simulation of materials; please cite
         "P. Giannozzi et al., J. Phys.:Condens. Matter 21 395502 (2009);
          URL http://www.quantum-espresso.org", 
     in publications or presentations arising from this work. More details at
     http://www.quantum-espresso.org/quote

     Parallel version (MPI), running on    32 processors
     R & G space division:  proc/nbgrp/npool/nimage =      32
     Reading input from top.O1.Au62.d.3.0.phi.25.psi.180.in
Warning: card &IONS ignored
Warning: card / ignored
Warning: card &CELL ignored
Warning: card / ignored

     Current dimensions of program PWSCF are:
     Max number of different atomic species (ntypx) = 10
     Max number of k-points (npk) =  40000
     Max angular momentum in pseudopotentials (lmaxx) =  3

     IMPORTANT: XC functional enforced from input :
     Exchange-correlation      = VDW-DF ( 1  4  4  0 1 0)
     Any further DFT definition will be discarded
     Please, verify this is what you really want


     Subspace diagonalization in iterative solution of the eigenvalue problem:
     a serial algorithm will be used


     Parallelization info
     --------------------
     sticks:   dense  smooth     PW     G-vecs:    dense   smooth      PW
     Min         578     289     74               118518    41891    5486
     Max         579     290     75               118533    41932    5497
     Sum       18505    9265   2385              3792731  1341081  175711


     Title: 
     top.O1.Au62.d.3.0.phi.25.psi.180                                           


     bravais-lattice index     =            8
     lattice parameter (alat)  =      24.1233  a.u.
     unit-cell volume          =   28076.2361 (a.u.)^3
     number of atoms/cell      =           75
     number of atomic types    =            3
     number of electrons       =       800.00
     number of Kohn-Sham states=          480
     kinetic-energy cutoff     =      50.0000  Ry
     charge density cutoff     =     400.0000  Ry
     convergence threshold     =      1.0E-08
     mixing beta               =       0.7000
     number of iterations used =            8  plain     mixing
     Exchange-correlation      = VDW-DF ( 1  4  4  0 1 0)

     celldm(1)=  24.123277  celldm(2)=   1.000000  celldm(3)=   2.000000
     celldm(4)=   0.000000  celldm(5)=   0.000000  celldm(6)=   0.000000

     crystal axes: (cart. coord. in units of alat)
               a(1) = (   1.000000   0.000000   0.000000 )  
               a(2) = (   0.000000   1.000000   0.000000 )  
               a(3) = (   0.000000   0.000000   2.000000 )  

     reciprocal axes: (cart. coord. in units 2 pi/alat)
               b(1) = (  1.000000  0.000000  0.000000 )  
               b(2) = (  0.000000  1.000000  0.000000 )  
               b(3) = (  0.000000  0.000000  0.500000 )  


     PseudoPot. # 1 for Au read from file:
     /home/scc/andrejb/qe/pseudo/Au.pbe-nd-van.UPF
     MD5 check sum: 458681b50f36d87ef23c61b04bba420a
     Pseudo is Ultrasoft + core correction, Zval = 11.0
     Generated by new atomic code, or converted to UPF format
     Using radial grid of  985 points,  3 beta functions with: 
                l(1) =   1
                l(2) =   2
                l(3) =   2
     Q(r) pseudized with  8 coefficients,  rinner =    1.100   1.100   1.100
                                                       1.100   1.100

     PseudoPot. # 2 for H  read from file:
     /home/scc/andrejb/qe/pseudo/H.pbe-van_ak.UPF
     MD5 check sum: 403db7282739603aa925980fa9b8608d
     Pseudo is Ultrasoft, Zval =  1.0
     Generated by new atomic code, or converted to UPF format
     Using radial grid of  615 points,  1 beta functions with: 
                l(1) =   0
     Q(r) pseudized with  8 coefficients,  rinner =    0.800

     PseudoPot. # 3 for O  read from file:
     /home/scc/andrejb/qe/pseudo/O.pbe-van_ak.UPF
     MD5 check sum: 4b8c549914a63cae506c6ff22b5af4fe
     Pseudo is Ultrasoft, Zval =  6.0
     Generated by new atomic code, or converted to UPF format
     Using radial grid of  737 points,  4 beta functions with: 
                l(1) =   0
                l(2) =   0
                l(3) =   1
                l(4) =   1
     Q(r) pseudized with  8 coefficients,  rinner =    0.800   0.800   0.800


     vdW kernel table read from file vdW_kernel_table
     MD5 check sum: 48e77a2e26edf626eeb0eaa751ad5cac

     atomic species   valence    mass     pseudopotential
        Au            11.00   196.96657     Au( 1.00)
        H              1.00     1.01000     H ( 1.00)
        O              6.00    16.00000     O ( 1.00)

     No symmetry found



   Cartesian axes

     site n.     atom                  positions (alat units)
         1           O   tau(   1) = (   0.4998324   0.3332216   0.7343272  )
         2           H   tau(   2) = (   0.4742046   0.3888446   0.6888333  )
         3           H   tau(   3) = (   0.5246755   0.2792689   0.6864695  )
         4           Au  tau(   4) = (   0.0000000   0.0000000   0.0000000  )
         5           Au  tau(   5) = (   0.3332217   0.0000000   0.0000000  )
         6           Au  tau(   6) = (   0.6664435   0.0000000   0.0000000  )
         7           Au  tau(   7) = (   0.1666109   0.1666109   0.0000000  )
         8           Au  tau(   8) = (   0.4998326   0.1666109   0.0000000  )
         9           Au  tau(   9) = (   0.8330542   0.1666109   0.0000000  )
        10           Au  tau(  10) = (   0.0000000   0.3332217   0.0000000  )
        11           Au  tau(  11) = (   0.3332217   0.3332217   0.0000000  )
        12           Au  tau(  12) = (   0.6664435   0.3332217   0.0000000  )
        13           Au  tau(  13) = (   0.1666109   0.4998326   0.0000000  )
        14           Au  tau(  14) = (   0.4998326   0.4998326   0.0000000  )
        15           Au  tau(  15) = (   0.8330542   0.4998326   0.0000000  )
        16           Au  tau(  16) = (   0.0000000   0.6664435   0.0000000  )
        17           Au  tau(  17) = (   0.3332217   0.6664435   0.0000000  )
        18           Au  tau(  18) = (   0.6664435   0.6664435   0.0000000  )
        19           Au  tau(  19) = (   0.1666109   0.8330542   0.0000000  )
        20           Au  tau(  20) = (   0.4998326   0.8330542   0.0000000  )
        21           Au  tau(  21) = (   0.8330542   0.8330542   0.0000000  )
        22           Au  tau(  22) = (   0.1666109   0.0000000   0.1666109  )
        23           Au  tau(  23) = (   0.4998326   0.0000000   0.1666109  )
        24           Au  tau(  24) = (   0.8330542   0.0000000   0.1666109  )
        25           Au  tau(  25) = (   0.0000000   0.1666109   0.1666109  )
        26           Au  tau(  26) = (   0.3332217   0.1666109   0.1666109  )
        27           Au  tau(  27) = (   0.6664435   0.1666109   0.1666109  )
        28           Au  tau(  28) = (   0.1666109   0.3332217   0.1666109  )
        29           Au  tau(  29) = (   0.4998326   0.3332217   0.1666109  )
        30           Au  tau(  30) = (   0.8330542   0.3332217   0.1666109  )
        31           Au  tau(  31) = (   0.0000000   0.4998326   0.1666109  )
        32           Au  tau(  32) = (   0.3332217   0.4998326   0.1666109  )
        33           Au  tau(  33) = (   0.6664435   0.4998326   0.1666109  )
        34           Au  tau(  34) = (   0.1666109   0.6664435   0.1666109  )
        35           Au  tau(  35) = (   0.4998326   0.6664435   0.1666109  )
        36           Au  tau(  36) = (   0.8330542   0.6664435   0.1666109  )
        37           Au  tau(  37) = (   0.0000000   0.8330542   0.1666109  )
        38           Au  tau(  38) = (   0.3332217   0.8330542   0.1666109  )
        39           Au  tau(  39) = (   0.6664435   0.8330542   0.1666109  )
        40           Au  tau(  40) = (  -0.0000182  -0.0000182   0.3335478  )
        41           Au  tau(  41) = (   0.3332215  -0.0000181   0.3335472  )
        42           Au  tau(  42) = (   0.6664447  -0.0000183   0.3335481  )
        43           Au  tau(  43) = (  -0.0000181   0.3332215   0.3335472  )
        44           Au  tau(  44) = (   0.3332215   0.3332215   0.3335468  )
        45           Au  tau(  45) = (   0.6664445   0.3332215   0.3335478  )
        46           Au  tau(  46) = (  -0.0000183   0.6664447   0.3335481  )
        47           Au  tau(  47) = (   0.3332215   0.6664445   0.3335478  )
        48           Au  tau(  48) = (   0.6664446   0.6664446   0.3335486  )
        49           Au  tau(  49) = (   0.1666097   0.1666097   0.3335483  )
        50           Au  tau(  50) = (   0.4998320   0.1666098   0.3335477  )
        51           Au  tau(  51) = (   0.8330732   0.1666096   0.3335481  )
        52           Au  tau(  52) = (   0.1666098   0.4998320   0.3335477  )
        53           Au  tau(  53) = (   0.4998321   0.4998321   0.3335470  )
        54           Au  tau(  54) = (   0.8330730   0.4998322   0.3335474  )
        55           Au  tau(  55) = (   0.1666096   0.8330732   0.3335481  )
        56           Au  tau(  56) = (   0.4998322   0.8330730   0.3335474  )
        57           Au  tau(  57) = (   0.8330731   0.8330731   0.3335478  )
        58           Au  tau(  58) = (   0.1666104  -0.0000111   0.4993095  )
        59           Au  tau(  59) = (   0.4998323  -0.0000112   0.4993099  )
        60           Au  tau(  60) = (   0.8330661  -0.0000111   0.4993009  )
        61           Au  tau(  61) = (  -0.0000111   0.1666104   0.4993095  )
        62           Au  tau(  62) = (   0.3332214   0.1666106   0.4993185  )
        63           Au  tau(  63) = (   0.6664437   0.1666106   0.4993187  )
        64           Au  tau(  64) = (   0.1666106   0.3332214   0.4993185  )
        65           Au  tau(  65) = (   0.4998324   0.3332216   0.4993185  )
        66           Au  tau(  66) = (   0.8330659   0.3332215   0.4993103  )
        67           Au  tau(  67) = (  -0.0000112   0.4998323   0.4993099  )
        68           Au  tau(  68) = (   0.3332216   0.4998324   0.4993185  )
        69           Au  tau(  69) = (   0.6664436   0.4998325   0.4993187  )
        70           Au  tau(  70) = (   0.1666106   0.6664437   0.4993187  )
        71           Au  tau(  71) = (   0.4998325   0.6664436   0.4993187  )
        72           Au  tau(  72) = (   0.8330658   0.6664438   0.4993102  )
        73           Au  tau(  73) = (  -0.0000111   0.8330661   0.4993009  )
        74           Au  tau(  74) = (   0.3332215   0.8330659   0.4993103  )
        75           Au  tau(  75) = (   0.6664438   0.8330658   0.4993102  )

     number of k points=     6  Marzari-Vanderbilt smearing, width (Ry)=  0.0200
                       cart. coord. in units 2pi/alat
        k(    1) = (   0.2500000   0.2500000   0.0833333), wk =   0.3333333
        k(    2) = (   0.2500000   0.2500000  -0.2500000), wk =   0.3333333
        k(    3) = (  -0.2500000  -0.2500000   0.0833333), wk =   0.3333333
        k(    4) = (  -0.2500000   0.2500000  -0.0833333), wk =   0.3333333
        k(    5) = (   0.2500000  -0.2500000  -0.0833333), wk =   0.3333333
        k(    6) = (  -0.2500000   0.2500000   0.2500000), wk =   0.3333333

     Dense  grid:  3792731 G-vectors     FFT dimensions: ( 160, 160, 320)

     Smooth grid:  1341081 G-vectors     FFT dimensions: ( 120, 120, 225)

     Largest allocated arrays     est. size (Mb)     dimensions
        Kohn-Sham Wavefunctions        38.58 Mb     (    5267,  480)
        NL pseudopotentials            76.03 Mb     (    5267,  946)
        Each V/rho on FFT grid          3.91 Mb     (  256000)
        Each G-vector array             0.90 Mb     (  118520)
        G-vector shells                 0.08 Mb     (   10286)
     Largest temporary arrays     est. size (Mb)     dimensions
        Auxiliary wavefunctions       154.31 Mb     (    5267, 1920)
        Each subspace H/S matrix       56.25 Mb     (    1920, 1920)
        Each <psi_i|beta_j> matrix      6.93 Mb     (     946,  480)
        Arrays for rho mixing          31.25 Mb     (  256000,    8)

     Initial potential from superposition of free atoms
     Check: negative starting charge=   -1.945263

     starting charge  799.16392, renormalised to  800.00000

     negative rho (up, down):  1.947E+00 0.000E+00


     ************************************************************************
     *
     * You are using vdW-DF for exchange-correlation in this calculation.
     * Please cite the following three references that made this development
     * possible:
     *
     *   M. Dion, H. Rydberg, E. Schroder, D. C. Langreth, and
     *   B. I. Lundqvist, Phys. Rev. Lett. 92, 246401 (2004).
     *
     *   T. Thonhauser, V. R. Cooper, S. Li, A. Puzder, P. Hyldgaard, and
     *   D. C. Langreth, Phys. Rev. B 76, 125112 (2007).
     *
     *   G. Roman-Perez and J. M. Soler, Phys. Rev. Lett. 103, 096102 (2009).
     *
     *
     * If you are using vdW-DF2, please also cite:
     *
     *   K. Lee, E. D. Murray, L. Kong, B. I. Lundqvist, and
     *   D. C. Langreth, Phys. Rev. B 82, 081101(R) (2010).
     *
     *
     * If you are calculating the stress with vdW-DF, please also cite:
     *
     *   R. Sabatini, E. Kucukbenli, B. Kolb, T. Thonhauser, and
     *   S. de Gironcoli, J. Phys.: Condens. Matter 24, 424209 (2012).
     *
     ************************************************************************

     Carrying out vdW-DF run using the following parameters:

     Nqs =      20    Nr_points =    1024   r_max =   100.000
     q_mesh =
               0.00001000     0.04494208     0.09755937     0.15916263
               0.23128650     0.31572767     0.41458969     0.53033537
               0.66584808     0.82450364     1.01025438     1.22772762
               1.48234092     1.78043706     2.12944203     2.53805004
               3.01644009     3.57652955     4.23227104     5.00000000

     Gradients computed in reciprocal space

     ************************************************************************


     Starting wfc are  654 randomized atomic wfcs

     total cpu time spent up to now is      130.4 secs

     Self-consistent Calculation

     iteration #  1     ecut=    50.00 Ry     beta=0.70
     Davidson diagonalization with overlap
     ethr =  1.00E-02,  avg # of iterations =  3.0

     Threshold (ethr) on eigenvalues was too large:
     Diagonalizing with lowered threshold

     Davidson diagonalization with overlap
     ethr =  4.14E-04,  avg # of iterations =  2.0

     negative rho (up, down):  1.947E+00 0.000E+00

     total cpu time spent up to now is      573.9 secs

     total energy              =   -7423.06620216 Ry
     Harris-Foulkes estimate   =   -7426.04764516 Ry
     estimated scf accuracy    <       3.68842281 Ry

     iteration #  2     ecut=    50.00 Ry     beta=0.70
     Davidson diagonalization with overlap
     ethr =  4.61E-04,  avg # of iterations = 11.0

     negative rho (up, down):  1.943E+00 0.000E+00

     total cpu time spent up to now is     1280.8 secs

     total energy              =   -7415.50367242 Ry
     Harris-Foulkes estimate   =   -7432.46414507 Ry
     estimated scf accuracy    <      87.69624408 Ry

     iteration #  3     ecut=    50.00 Ry     beta=0.70
     Davidson diagonalization with overlap
     ethr =  4.61E-04,  avg # of iterations =  6.0

     negative rho (up, down):  1.953E+00 0.000E+00

     total cpu time spent up to now is     1749.4 secs

     total energy              =   -7424.00518636 Ry
     Harris-Foulkes estimate   =   -7425.89959720 Ry
     estimated scf accuracy    <       8.18436179 Ry

     iteration #  4     ecut=    50.00 Ry     beta=0.70
     Davidson diagonalization with overlap
     ethr =  4.61E-04,  avg # of iterations =  6.8

     negative rho (up, down):  1.955E+00 0.000E+00

     total cpu time spent up to now is     2036.8 secs

     total energy              =   -7424.70983539 Ry
     Harris-Foulkes estimate   =   -7425.76978439 Ry
     estimated scf accuracy    <       6.52717060 Ry

     iteration #  5     ecut=    50.00 Ry     beta=0.70
     Davidson diagonalization with overlap
     ethr =  4.61E-04,  avg # of iterations =  6.2

     negative rho (up, down):  1.963E+00 0.000E+00

     total cpu time spent up to now is     2311.9 secs

     total energy              =   -7425.10628306 Ry
     Harris-Foulkes estimate   =   -7425.55279070 Ry
     estimated scf accuracy    <       3.14253029 Ry

     iteration #  6     ecut=    50.00 Ry     beta=0.70
     Davidson diagonalization with overlap
     ethr =  3.93E-04,  avg # of iterations =  2.8

     negative rho (up, down):  1.967E+00 0.000E+00

     total cpu time spent up to now is     2541.2 secs

     total energy              =   -7425.27043783 Ry
     Harris-Foulkes estimate   =   -7425.32876117 Ry
     estimated scf accuracy    <       0.20374948 Ry

     iteration #  7     ecut=    50.00 Ry     beta=0.70
     Davidson diagonalization with overlap
     ethr =  2.55E-05,  avg # of iterations =  6.8

     negative rho (up, down):  1.970E+00 0.000E+00

     total cpu time spent up to now is     2846.4 secs

     total energy              =   -7425.27446763 Ry
     Harris-Foulkes estimate   =   -7425.32447059 Ry
     estimated scf accuracy    <       0.26781443 Ry

     iteration #  8     ecut=    50.00 Ry     beta=0.70
     Davidson diagonalization with overlap
     ethr =  2.55E-05,  avg # of iterations =  3.0

     negative rho (up, down):  1.971E+00 0.000E+00

     total cpu time spent up to now is     3087.0 secs

     total energy              =   -7425.28450063 Ry
     Harris-Foulkes estimate   =   -7425.30340759 Ry
     estimated scf accuracy    <       0.08000304 Ry

     iteration #  9     ecut=    50.00 Ry     beta=0.70
     Davidson diagonalization with overlap
     ethr =  1.00E-05,  avg # of iterations =  4.3

     negative rho (up, down):  1.972E+00 0.000E+00

     total cpu time spent up to now is     3341.5 secs

     total energy              =   -7425.28474381 Ry
     Harris-Foulkes estimate   =   -7425.29511357 Ry
     estimated scf accuracy    <       0.03664348 Ry

     iteration # 10     ecut=    50.00 Ry     beta=0.70
     Davidson diagonalization with overlap
     ethr =  4.58E-06,  avg # of iterations = 10.0

     negative rho (up, down):  1.973E+00 0.000E+00

     total cpu time spent up to now is     3659.4 secs

     total energy              =   -7425.28556729 Ry
     Harris-Foulkes estimate   =   -7425.28895798 Ry
     estimated scf accuracy    <       0.01133134 Ry

     iteration # 11     ecut=    50.00 Ry     beta=0.70
     Davidson diagonalization with overlap
     ethr =  1.42E-06,  avg # of iterations = 10.2

     negative rho (up, down):  1.974E+00 0.000E+00

     total cpu time spent up to now is     3987.4 secs

     total energy              =   -7425.28565601 Ry
     Harris-Foulkes estimate   =   -7425.28711795 Ry
     estimated scf accuracy    <       0.00519621 Ry

     iteration # 12     ecut=    50.00 Ry     beta=0.70
     Davidson diagonalization with overlap
     ethr =  6.50E-07,  avg # of iterations =  2.7

     negative rho (up, down):  1.974E+00 0.000E+00

     total cpu time spent up to now is     4218.5 secs

     total energy              =   -7425.28516660 Ry
     Harris-Foulkes estimate   =   -7425.28616081 Ry
     estimated scf accuracy    <       0.00160623 Ry

     iteration # 13     ecut=    50.00 Ry     beta=0.70
     Davidson diagonalization with overlap
     ethr =  2.01E-07,  avg # of iterations =  4.0

     negative rho (up, down):  1.974E+00 0.000E+00

     total cpu time spent up to now is     4552.4 secs

     total energy              =   -7425.28467713 Ry
     Harris-Foulkes estimate   =   -7425.28670179 Ry
     estimated scf accuracy    <       0.00949185 Ry

     iteration # 14     ecut=    50.00 Ry     beta=0.70
     Davidson diagonalization with overlap
     ethr =  2.01E-07,  avg # of iterations =  3.0

     negative rho (up, down):  1.974E+00 0.000E+00

     total cpu time spent up to now is     4833.0 secs

     total energy              =   -7425.28555757 Ry
     Harris-Foulkes estimate   =   -7425.28579511 Ry
     estimated scf accuracy    <       0.00104229 Ry

     iteration # 15     ecut=    50.00 Ry     beta=0.70
     Davidson diagonalization with overlap
     ethr =  1.30E-07,  avg # of iterations =  2.0

     negative rho (up, down):  1.974E+00 0.000E+00

     total cpu time spent up to now is     5052.0 secs

     total energy              =   -7425.28567105 Ry
     Harris-Foulkes estimate   =   -7425.28571935 Ry
     estimated scf accuracy    <       0.00020925 Ry

     iteration # 16     ecut=    50.00 Ry     beta=0.70
     Davidson diagonalization with overlap
     ethr =  2.62E-08,  avg # of iterations =  2.0

     negative rho (up, down):  1.974E+00 0.000E+00

     total cpu time spent up to now is     5276.4 secs

     total energy              =   -7425.28565916 Ry
     Harris-Foulkes estimate   =   -7425.28574073 Ry
     estimated scf accuracy    <       0.00064873 Ry

     iteration # 17     ecut=    50.00 Ry     beta=0.70
     Davidson diagonalization with overlap
     ethr =  2.62E-08,  avg # of iterations =  2.0

     negative rho (up, down):  1.974E+00 0.000E+00

     total cpu time spent up to now is     5499.6 secs

     total energy              =   -7425.28569785 Ry
     Harris-Foulkes estimate   =   -7425.28570549 Ry
     estimated scf accuracy    <       0.00002934 Ry

     iteration # 18     ecut=    50.00 Ry     beta=0.70
     Davidson diagonalization with overlap
     ethr =  3.67E-09,  avg # of iterations =  2.0

     negative rho (up, down):  1.974E+00 0.000E+00

     total cpu time spent up to now is     5726.8 secs

     total energy              =   -7425.28570037 Ry
     Harris-Foulkes estimate   =   -7425.28570434 Ry
     estimated scf accuracy    <       0.00001505 Ry

     iteration # 19     ecut=    50.00 Ry     beta=0.70
     Davidson diagonalization with overlap
     ethr =  1.88E-09,  avg # of iterations =  2.0

     negative rho (up, down):  1.974E+00 0.000E+00

     total cpu time spent up to now is     5952.2 secs

     total energy              =   -7425.28570126 Ry
     Harris-Foulkes estimate   =   -7425.28570445 Ry
     estimated scf accuracy    <       0.00001734 Ry

     iteration # 20     ecut=    50.00 Ry     beta=0.70
     Davidson diagonalization with overlap
     ethr =  1.88E-09,  avg # of iterations =  2.0

     negative rho (up, down):  1.974E+00 0.000E+00

     total cpu time spent up to now is     6173.0 secs

     total energy              =   -7425.28570298 Ry
     Harris-Foulkes estimate   =   -7425.28570311 Ry
     estimated scf accuracy    <       0.00000075 Ry

     iteration # 21     ecut=    50.00 Ry     beta=0.70
     Davidson diagonalization with overlap
     ethr =  9.31E-11,  avg # of iterations =  3.0

     negative rho (up, down):  1.974E+00 0.000E+00

     total cpu time spent up to now is     6430.3 secs

     total energy              =   -7425.28570312 Ry
     Harris-Foulkes estimate   =   -7425.28570315 Ry
     estimated scf accuracy    <       0.00000017 Ry

     iteration # 22     ecut=    50.00 Ry     beta=0.70
     Davidson diagonalization with overlap
     ethr =  2.07E-11,  avg # of iterations =  3.0

     negative rho (up, down):  1.974E+00 0.000E+00

     total cpu time spent up to now is     6716.8 secs

     total energy              =   -7425.28570313 Ry
     Harris-Foulkes estimate   =   -7425.28570323 Ry
     estimated scf accuracy    <       0.00000044 Ry

     iteration # 23     ecut=    50.00 Ry     beta=0.70
     Davidson diagonalization with overlap
     ethr =  2.07E-11,  avg # of iterations =  3.0

     negative rho (up, down):  1.974E+00 0.000E+00

     total cpu time spent up to now is     6965.1 secs

     total energy              =   -7425.28570316 Ry
     Harris-Foulkes estimate   =   -7425.28570319 Ry
     estimated scf accuracy    <       0.00000006 Ry

     iteration # 24     ecut=    50.00 Ry     beta=0.70
     Davidson diagonalization with overlap
     ethr =  7.29E-12,  avg # of iterations =  2.5

     negative rho (up, down):  1.974E+00 0.000E+00

     total cpu time spent up to now is     7213.5 secs

     total energy              =   -7425.28570318 Ry
     Harris-Foulkes estimate   =   -7425.28570319 Ry
     estimated scf accuracy    <       0.00000009 Ry

     iteration # 25     ecut=    50.00 Ry     beta=0.70
     Davidson diagonalization with overlap
     ethr =  7.29E-12,  avg # of iterations =  2.0

     negative rho (up, down):  1.974E+00 0.000E+00

     total cpu time spent up to now is     7439.0 secs

     total energy              =   -7425.28570319 Ry
     Harris-Foulkes estimate   =   -7425.28570320 Ry
     estimated scf accuracy    <       0.00000004 Ry

     iteration # 26     ecut=    50.00 Ry     beta=0.70
     Davidson diagonalization with overlap
     ethr =  5.37E-12,  avg # of iterations =  2.0

     negative rho (up, down):  1.974E+00 0.000E+00

     total cpu time spent up to now is     7663.9 secs

     total energy              =   -7425.28570319 Ry
     Harris-Foulkes estimate   =   -7425.28570319 Ry
     estimated scf accuracy    <       0.00000001 Ry

     iteration # 27     ecut=    50.00 Ry     beta=0.70
     Davidson diagonalization with overlap
     ethr =  1.43E-12,  avg # of iterations =  3.0

     negative rho (up, down):  1.974E+00 0.000E+00

     total cpu time spent up to now is     7901.9 secs

     total energy              =   -7425.28570319 Ry
     Harris-Foulkes estimate   =   -7425.28570320 Ry
     estimated scf accuracy    <       0.00000006 Ry

     iteration # 28     ecut=    50.00 Ry     beta=0.70
     Davidson diagonalization with overlap
     ethr =  1.43E-12,  avg # of iterations =  2.0

     negative rho (up, down):  1.974E+00 0.000E+00

     total cpu time spent up to now is     8140.5 secs

     End of self-consistent calculation

          k = 0.2500 0.2500 0.0833 (167653 PWs)   bands (ev):

   -19.3407  -7.1707  -6.9205  -6.3925  -6.3910  -5.9622  -5.5563  -5.4608
    -5.4591  -5.2636  -5.2636  -5.1519  -5.1453  -5.0669  -5.0459  -4.9717
    -4.8865  -4.8826  -4.8452  -4.8430  -4.6841  -4.6674  -4.6649  -4.6644
    -4.6572  -4.6033  -4.6020  -4.5912  -4.5898  -4.5529  -4.5460  -4.5401
    -4.4994  -4.4979  -4.4649  -4.4635  -4.4146  -4.4111  -4.4034  -4.3998
    -4.3938  -4.3820  -4.3806  -4.3430  -4.3220  -4.3219  -4.3142  -4.3141
    -4.2854  -4.2388  -4.2226  -4.2172  -4.2169  -4.2127  -4.2062  -4.2006
    -4.1997  -4.1988  -4.1387  -4.1338  -4.0938  -4.0841  -4.0725  -4.0483
    -4.0456  -4.0322  -4.0230  -4.0221  -4.0187  -4.0162  -3.9683  -3.9671
    -3.9544  -3.9535  -3.8644  -3.8482  -3.8461  -3.8415  -3.8071  -3.8013
    -3.7826  -3.7604  -3.7523  -3.7296  -3.7221  -3.7074  -3.7009  -3.6894
    -3.6870  -3.6488  -3.6319  -3.6223  -3.6180  -3.5903  -3.5884  -3.5865
    -3.5847  -3.5819  -3.5568  -3.5541  -3.5210  -3.5076  -3.5008  -3.4976
    -3.4670  -3.4633  -3.4481  -3.4203  -3.4181  -3.3822  -3.3812  -3.3452
    -3.3375  -3.3366  -3.3234  -3.3232  -3.3178  -3.3145  -3.2832  -3.2682
    -3.2299  -3.2279  -3.2203  -3.2110  -3.2098  -3.2046  -3.1856  -3.1854
    -3.1646  -3.1631  -3.1628  -3.1366  -3.1366  -3.1289  -3.1268  -3.1233
    -3.0892  -3.0867  -3.0522  -3.0497  -3.0482  -3.0472  -3.0456  -2.9665
    -2.9571  -2.9552  -2.9528  -2.9518  -2.9504  -2.9462  -2.9450  -2.9445
    -2.9442  -2.9353  -2.9274  -2.9123  -2.9086  -2.9066  -2.9008  -2.8926
    -2.8897  -2.8510  -2.8491  -2.8487  -2.8442  -2.8435  -2.8266  -2.8259
    -2.8185  -2.8180  -2.8145  -2.7574  -2.7566  -2.7509  -2.7504  -2.7467
    -2.7413  -2.7169  -2.6583  -2.6577  -2.6556  -2.6535  -2.6432  -2.6418
    -2.6338  -2.6270  -2.6251  -2.5916  -2.5886  -2.5829  -2.5810  -2.5784
    -2.5781  -2.5407  -2.5400  -2.5303  -2.5299  -2.5273  -2.5262  -2.4838
    -2.4674  -2.4635  -2.4117  -2.4095  -2.3952  -2.3926  -2.3849  -2.3830
    -2.3392  -2.3349  -2.3129  -2.3011  -2.2857  -2.2818  -2.2792  -2.2598
    -2.2582  -2.2494  -2.2289  -2.1988  -2.1935  -2.1814  -2.1755  -2.1748
    -2.1693  -2.1657  -2.1565  -2.1502  -2.1480  -2.1462  -2.1420  -2.1396
    -2.1382  -2.1303  -2.1283  -2.1115  -2.1093  -2.1074  -2.1025  -2.0993
    -2.0974  -2.0769  -2.0743  -2.0626  -2.0623  -2.0552  -2.0521  -2.0165
    -1.9845  -1.9836  -1.9489  -1.9337  -1.9329  -1.9262  -1.9197  -1.9015
    -1.8974  -1.8875  -1.8819  -1.8810  -1.8791  -1.8781  -1.8747  -1.8441
    -1.8433  -1.8422  -1.7988  -1.7985  -1.7612  -1.7565  -1.7128  -1.7110
    -1.6975  -1.6765  -1.6700  -1.6678  -1.6595  -1.6522  -1.6398  -1.6319
    -1.6310  -1.6284  -1.6260  -1.6249  -1.6231  -1.6228  -1.6040  -1.6010
    -1.5873  -1.5752  -1.5593  -1.5581  -1.5406  -1.5292  -1.5253  -1.5249
    -1.5238  -1.5176  -1.5008  -1.4942  -1.4831  -1.4804  -1.4707  -1.4610
    -1.4457  -1.4448  -1.4183  -1.4171  -1.4084  -1.4062  -1.3786  -1.3702
    -1.3629  -1.3616  -1.3576  -1.3545  -1.3365  -1.3312  -1.3268  -1.3217
    -1.3126  -1.3095  -1.3019  -1.2990  -1.2984  -1.2862  -1.2841  -1.2744
    -1.2661  -1.2659  -1.2617  -1.2507  -1.2473  -1.2434  -1.2339  -1.2033
    -1.1965  -1.1962  -1.1937  -1.1917  -1.1899  -1.1555  -1.1371  -1.1356
    -1.1345  -1.1338  -1.1324  -1.1265  -1.1226  -1.1113  -1.1105  -1.0754
    -1.0728  -1.0676  -1.0660  -1.0450  -1.0444  -1.0348  -1.0069  -0.9972
    -0.9716  -0.9691  -0.9426  -0.9416  -0.9390  -0.9386  -0.9354  -0.9310
    -0.9276  -0.9252  -0.9235  -0.9222  -0.8911  -0.8908  -0.8732  -0.8693
    -0.8664  -0.8652  -0.8640  -0.8585  -0.8468  -0.5748  -0.5585  -0.5031
    -0.4938  -0.4649  -0.3035  -0.2395  -0.2389  -0.2010   0.0786   0.0834
     0.4107   0.4169   0.5080   0.5092   0.5503   0.5509   0.6931   0.7004
     0.8167   0.8201   0.9136   1.5062   1.5223   1.5229   1.5563   1.5693
     1.6150   1.6228   1.6931   1.6967   1.8993   1.9007   2.1384   2.2161
     2.2165   2.2320   2.6142   2.6175   2.6838   2.6865   2.6928   2.6944
     2.8439   2.8448   2.9014   2.9901   2.9969   3.2212   3.2254   3.3533
     3.3811   3.3826   3.6540   3.6586   3.7634   3.7848   3.7858   3.8734
     3.8744   3.9696   3.9734   4.2073   4.2098   4.2970   4.3037   4.4169
     4.4279   4.4435   4.4488   4.6170   5.2509   5.2619   5.3533   5.3543
     5.3657   5.5337   5.5360   5.6000   5.6408   5.6535   5.6710   5.7004
     5.7025   5.7182   5.7231   5.7490   5.9941   6.0193   6.0318   6.0424
     6.0465   6.0485   6.0508   6.0570   6.1365   6.1454   6.1772   6.1814

          k = 0.2500 0.2500-0.2500 (167588 PWs)   bands (ev):

   -19.3407  -7.1707  -6.9205  -6.3925  -6.3910  -5.9622  -5.5563  -5.4608
    -5.4591  -5.2636  -5.2636  -5.1519  -5.1453  -5.0669  -5.0459  -4.9717
    -4.8865  -4.8825  -4.8452  -4.8430  -4.6841  -4.6674  -4.6649  -4.6644
    -4.6572  -4.6033  -4.6020  -4.5912  -4.5898  -4.5529  -4.5460  -4.5401
    -4.4994  -4.4979  -4.4649  -4.4635  -4.4146  -4.4111  -4.4035  -4.3998
    -4.3938  -4.3820  -4.3806  -4.3430  -4.3220  -4.3219  -4.3142  -4.3141
    -4.2854  -4.2388  -4.2226  -4.2172  -4.2169  -4.2127  -4.2062  -4.2006
    -4.1997  -4.1988  -4.1387  -4.1338  -4.0938  -4.0841  -4.0725  -4.0483
    -4.0456  -4.0322  -4.0230  -4.0221  -4.0187  -4.0162  -3.9683  -3.9671
    -3.9544  -3.9535  -3.8644  -3.8482  -3.8461  -3.8415  -3.8071  -3.8013
    -3.7826  -3.7604  -3.7523  -3.7296  -3.7221  -3.7074  -3.7009  -3.6894
    -3.6870  -3.6488  -3.6319  -3.6223  -3.6181  -3.5903  -3.5884  -3.5865
    -3.5847  -3.5819  -3.5568  -3.5541  -3.5210  -3.5076  -3.5008  -3.4976
    -3.4670  -3.4632  -3.4481  -3.4203  -3.4181  -3.3822  -3.3812  -3.3452
    -3.3375  -3.3366  -3.3234  -3.3232  -3.3178  -3.3145  -3.2832  -3.2682
    -3.2299  -3.2279  -3.2203  -3.2110  -3.2098  -3.2046  -3.1856  -3.1854
    -3.1646  -3.1631  -3.1628  -3.1366  -3.1366  -3.1289  -3.1268  -3.1233
    -3.0892  -3.0867  -3.0522  -3.0497  -3.0482  -3.0472  -3.0456  -2.9665
    -2.9571  -2.9552  -2.9528  -2.9518  -2.9504  -2.9462  -2.9450  -2.9445
    -2.9442  -2.9353  -2.9274  -2.9123  -2.9086  -2.9066  -2.9007  -2.8926
    -2.8897  -2.8510  -2.8491  -2.8487  -2.8442  -2.8435  -2.8266  -2.8259
    -2.8185  -2.8180  -2.8145  -2.7574  -2.7566  -2.7509  -2.7503  -2.7467
    -2.7413  -2.7169  -2.6583  -2.6577  -2.6556  -2.6536  -2.6432  -2.6418
    -2.6338  -2.6270  -2.6251  -2.5916  -2.5886  -2.5829  -2.5810  -2.5784
    -2.5781  -2.5407  -2.5400  -2.5303  -2.5299  -2.5273  -2.5262  -2.4838
    -2.4674  -2.4635  -2.4117  -2.4095  -2.3953  -2.3926  -2.3849  -2.3830
    -2.3392  -2.3349  -2.3129  -2.3011  -2.2857  -2.2818  -2.2792  -2.2598
    -2.2582  -2.2494  -2.2289  -2.1988  -2.1935  -2.1814  -2.1755  -2.1748
    -2.1693  -2.1657  -2.1565  -2.1502  -2.1480  -2.1463  -2.1420  -2.1396
    -2.1382  -2.1303  -2.1282  -2.1115  -2.1093  -2.1074  -2.1025  -2.0993
    -2.0974  -2.0769  -2.0743  -2.0626  -2.0623  -2.0552  -2.0521  -2.0165
    -1.9845  -1.9836  -1.9489  -1.9337  -1.9329  -1.9262  -1.9197  -1.9015
    -1.8974  -1.8875  -1.8819  -1.8810  -1.8791  -1.8781  -1.8747  -1.8441
    -1.8433  -1.8422  -1.7988  -1.7985  -1.7612  -1.7565  -1.7128  -1.7110
    -1.6975  -1.6765  -1.6700  -1.6678  -1.6595  -1.6522  -1.6398  -1.6319
    -1.6310  -1.6284  -1.6260  -1.6249  -1.6231  -1.6228  -1.6040  -1.6010
    -1.5873  -1.5752  -1.5593  -1.5581  -1.5406  -1.5292  -1.5253  -1.5249
    -1.5238  -1.5176  -1.5008  -1.4942  -1.4831  -1.4804  -1.4707  -1.4610
    -1.4457  -1.4448  -1.4183  -1.4171  -1.4084  -1.4062  -1.3786  -1.3701
    -1.3629  -1.3616  -1.3576  -1.3545  -1.3365  -1.3312  -1.3268  -1.3217
    -1.3126  -1.3095  -1.3019  -1.2990  -1.2984  -1.2862  -1.2841  -1.2744
    -1.2661  -1.2658  -1.2617  -1.2507  -1.2473  -1.2434  -1.2339  -1.2033
    -1.1965  -1.1962  -1.1937  -1.1917  -1.1899  -1.1555  -1.1371  -1.1356
    -1.1345  -1.1338  -1.1324  -1.1265  -1.1226  -1.1113  -1.1105  -1.0754
    -1.0728  -1.0676  -1.0660  -1.0450  -1.0444  -1.0348  -1.0069  -0.9972
    -0.9716  -0.9690  -0.9426  -0.9416  -0.9390  -0.9386  -0.9354  -0.9310
    -0.9276  -0.9252  -0.9235  -0.9222  -0.8911  -0.8908  -0.8732  -0.8693
    -0.8664  -0.8652  -0.8640  -0.8585  -0.8468  -0.5748  -0.5585  -0.5031
    -0.4938  -0.4649  -0.3035  -0.2395  -0.2389  -0.2010   0.0786   0.0834
     0.4107   0.4169   0.5080   0.5092   0.5503   0.5509   0.6931   0.7004
     0.8167   0.8201   0.9136   1.5062   1.5223   1.5229   1.5563   1.5693
     1.6150   1.6228   1.6931   1.6967   1.8993   1.9007   2.1384   2.2161
     2.2165   2.2320   2.6142   2.6175   2.6838   2.6865   2.6928   2.6944
     2.8439   2.8448   2.9014   2.9901   2.9969   3.2212   3.2254   3.3533
     3.3811   3.3826   3.6540   3.6586   3.7634   3.7848   3.7858   3.8734
     3.8745   3.9696   3.9734   4.2072   4.2098   4.2970   4.3037   4.4169
     4.4279   4.4435   4.4488   4.6171   5.2502   5.2621   5.3344   5.3542
     5.3628   5.5336   5.5360   5.5996   5.6411   5.6537   5.6899   5.7004
     5.7038   5.7061   5.7485   5.7741   5.9942   6.0191   6.0320   6.0426
     6.0466   6.0486   6.0509   6.0570   6.1367   6.1450   6.1590   6.2849

          k =-0.2500-0.2500 0.0833 (167653 PWs)   bands (ev):

   -19.3407  -7.1707  -6.9205  -6.3925  -6.3910  -5.9622  -5.5563  -5.4608
    -5.4591  -5.2636  -5.2636  -5.1519  -5.1453  -5.0669  -5.0459  -4.9717
    -4.8865  -4.8826  -4.8452  -4.8430  -4.6841  -4.6674  -4.6649  -4.6644
    -4.6572  -4.6033  -4.6020  -4.5912  -4.5898  -4.5529  -4.5460  -4.5401
    -4.4994  -4.4979  -4.4649  -4.4635  -4.4146  -4.4111  -4.4034  -4.3998
    -4.3938  -4.3820  -4.3806  -4.3430  -4.3220  -4.3219  -4.3142  -4.3141
    -4.2854  -4.2388  -4.2226  -4.2172  -4.2169  -4.2127  -4.2062  -4.2006
    -4.1997  -4.1988  -4.1387  -4.1338  -4.0938  -4.0841  -4.0725  -4.0483
    -4.0456  -4.0322  -4.0230  -4.0221  -4.0187  -4.0162  -3.9683  -3.9671
    -3.9544  -3.9535  -3.8644  -3.8482  -3.8461  -3.8415  -3.8071  -3.8013
    -3.7826  -3.7604  -3.7523  -3.7296  -3.7221  -3.7074  -3.7009  -3.6894
    -3.6870  -3.6488  -3.6319  -3.6223  -3.6180  -3.5903  -3.5884  -3.5865
    -3.5847  -3.5819  -3.5568  -3.5541  -3.5210  -3.5076  -3.5008  -3.4976
    -3.4670  -3.4633  -3.4481  -3.4203  -3.4181  -3.3822  -3.3812  -3.3452
    -3.3375  -3.3366  -3.3234  -3.3232  -3.3178  -3.3145  -3.2832  -3.2682
    -3.2299  -3.2279  -3.2203  -3.2110  -3.2098  -3.2046  -3.1856  -3.1854
    -3.1646  -3.1631  -3.1628  -3.1366  -3.1366  -3.1289  -3.1268  -3.1233
    -3.0892  -3.0867  -3.0522  -3.0497  -3.0482  -3.0472  -3.0456  -2.9665
    -2.9571  -2.9552  -2.9528  -2.9518  -2.9504  -2.9462  -2.9450  -2.9445
    -2.9442  -2.9353  -2.9274  -2.9123  -2.9086  -2.9066  -2.9008  -2.8926
    -2.8897  -2.8510  -2.8491  -2.8487  -2.8442  -2.8435  -2.8266  -2.8259
    -2.8185  -2.8180  -2.8145  -2.7574  -2.7566  -2.7509  -2.7504  -2.7467
    -2.7413  -2.7169  -2.6583  -2.6577  -2.6556  -2.6535  -2.6432  -2.6418
    -2.6338  -2.6270  -2.6251  -2.5916  -2.5886  -2.5829  -2.5810  -2.5784
    -2.5781  -2.5407  -2.5400  -2.5303  -2.5299  -2.5273  -2.5262  -2.4838
    -2.4674  -2.4635  -2.4117  -2.4095  -2.3952  -2.3926  -2.3849  -2.3830
    -2.3392  -2.3349  -2.3129  -2.3011  -2.2857  -2.2818  -2.2792  -2.2598
    -2.2582  -2.2494  -2.2289  -2.1988  -2.1935  -2.1814  -2.1755  -2.1748
    -2.1693  -2.1657  -2.1565  -2.1502  -2.1480  -2.1462  -2.1420  -2.1396
    -2.1382  -2.1303  -2.1283  -2.1115  -2.1093  -2.1074  -2.1025  -2.0993
    -2.0974  -2.0769  -2.0743  -2.0626  -2.0623  -2.0552  -2.0521  -2.0165
    -1.9845  -1.9836  -1.9489  -1.9337  -1.9329  -1.9262  -1.9197  -1.9015
    -1.8974  -1.8875  -1.8819  -1.8810  -1.8791  -1.8781  -1.8747  -1.8441
    -1.8433  -1.8422  -1.7988  -1.7985  -1.7612  -1.7565  -1.7128  -1.7110
    -1.6975  -1.6765  -1.6700  -1.6678  -1.6595  -1.6522  -1.6398  -1.6319
    -1.6310  -1.6284  -1.6260  -1.6249  -1.6231  -1.6228  -1.6040  -1.6010
    -1.5873  -1.5752  -1.5593  -1.5581  -1.5406  -1.5292  -1.5253  -1.5249
    -1.5238  -1.5176  -1.5008  -1.4942  -1.4831  -1.4804  -1.4707  -1.4610
    -1.4457  -1.4448  -1.4183  -1.4171  -1.4084  -1.4062  -1.3786  -1.3702
    -1.3629  -1.3616  -1.3576  -1.3545  -1.3365  -1.3312  -1.3268  -1.3217
    -1.3126  -1.3095  -1.3019  -1.2990  -1.2984  -1.2862  -1.2841  -1.2744
    -1.2661  -1.2659  -1.2617  -1.2507  -1.2473  -1.2434  -1.2339  -1.2033
    -1.1965  -1.1962  -1.1937  -1.1917  -1.1899  -1.1555  -1.1371  -1.1356
    -1.1345  -1.1338  -1.1324  -1.1265  -1.1226  -1.1113  -1.1105  -1.0754
    -1.0728  -1.0676  -1.0660  -1.0450  -1.0444  -1.0348  -1.0069  -0.9972
    -0.9716  -0.9691  -0.9426  -0.9416  -0.9390  -0.9386  -0.9354  -0.9310
    -0.9276  -0.9252  -0.9235  -0.9222  -0.8911  -0.8908  -0.8732  -0.8693
    -0.8664  -0.8652  -0.8640  -0.8585  -0.8468  -0.5748  -0.5585  -0.5031
    -0.4938  -0.4649  -0.3035  -0.2395  -0.2389  -0.2010   0.0786   0.0834
     0.4107   0.4169   0.5080   0.5092   0.5503   0.5509   0.6931   0.7004
     0.8167   0.8201   0.9136   1.5062   1.5223   1.5229   1.5563   1.5693
     1.6150   1.6228   1.6931   1.6967   1.8993   1.9007   2.1384   2.2161
     2.2165   2.2320   2.6142   2.6175   2.6838   2.6865   2.6928   2.6944
     2.8439   2.8448   2.9014   2.9901   2.9969   3.2212   3.2254   3.3533
     3.3811   3.3826   3.6540   3.6586   3.7634   3.7848   3.7858   3.8734
     3.8744   3.9696   3.9734   4.2073   4.2098   4.2970   4.3037   4.4169
     4.4279   4.4435   4.4488   4.6170   5.2509   5.2619   5.3533   5.3543
     5.3657   5.5337   5.5360   5.6000   5.6408   5.6535   5.6710   5.7004
     5.7025   5.7183   5.7230   5.7490   5.9941   6.0193   6.0318   6.0424
     6.0465   6.0485   6.0508   6.0570   6.1365   6.1454   6.1773   6.1812

          k =-0.2500 0.2500-0.0833 (167653 PWs)   bands (ev):

   -19.3407  -7.1707  -6.9205  -6.3935  -6.3901  -5.9621  -5.5562  -5.4616
    -5.4583  -5.2637  -5.2635  -5.1537  -5.1441  -5.0669  -5.0454  -4.9714
    -4.8865  -4.8830  -4.8462  -4.8428  -4.6838  -4.6675  -4.6656  -4.6637
    -4.6571  -4.6032  -4.6020  -4.5915  -4.5890  -4.5532  -4.5463  -4.5390
    -4.4995  -4.4977  -4.4649  -4.4635  -4.4165  -4.4102  -4.4028  -4.3999
    -4.3938  -4.3820  -4.3806  -4.3418  -4.3224  -4.3215  -4.3145  -4.3138
    -4.2841  -4.2377  -4.2274  -4.2178  -4.2162  -4.2121  -4.2062  -4.2013
    -4.1997  -4.1986  -4.1414  -4.1328  -4.0921  -4.0831  -4.0722  -4.0505
    -4.0455  -4.0341  -4.0226  -4.0226  -4.0185  -4.0161  -3.9680  -3.9671
    -3.9549  -3.9527  -3.8617  -3.8472  -3.8471  -3.8406  -3.8070  -3.8012
    -3.7828  -3.7613  -3.7523  -3.7291  -3.7213  -3.7078  -3.7006  -3.6898
    -3.6860  -3.6502  -3.6315  -3.6240  -3.6177  -3.5898  -3.5885  -3.5866
    -3.5843  -3.5830  -3.5567  -3.5538  -3.5210  -3.5063  -3.5011  -3.4970
    -3.4674  -3.4627  -3.4481  -3.4207  -3.4180  -3.3828  -3.3805  -3.3453
    -3.3375  -3.3365  -3.3237  -3.3229  -3.3177  -3.3147  -3.2832  -3.2682
    -3.2299  -3.2279  -3.2202  -3.2108  -3.2099  -3.2052  -3.1854  -3.1849
    -3.1649  -3.1639  -3.1617  -3.1367  -3.1365  -3.1289  -3.1272  -3.1229
    -3.0892  -3.0875  -3.0520  -3.0491  -3.0487  -3.0474  -3.0455  -2.9664
    -2.9576  -2.9565  -2.9532  -2.9509  -2.9500  -2.9457  -2.9453  -2.9449
    -2.9442  -2.9352  -2.9274  -2.9122  -2.9088  -2.9064  -2.9016  -2.8926
    -2.8896  -2.8510  -2.8491  -2.8489  -2.8442  -2.8432  -2.8270  -2.8253
    -2.8187  -2.8176  -2.8146  -2.7574  -2.7566  -2.7514  -2.7506  -2.7467
    -2.7412  -2.7167  -2.6584  -2.6579  -2.6553  -2.6536  -2.6434  -2.6417
    -2.6335  -2.6277  -2.6248  -2.5909  -2.5870  -2.5837  -2.5818  -2.5781
    -2.5771  -2.5399  -2.5391  -2.5304  -2.5294  -2.5281  -2.5257  -2.4836
    -2.4667  -2.4639  -2.4122  -2.4091  -2.3950  -2.3929  -2.3850  -2.3827
    -2.3399  -2.3338  -2.3126  -2.3022  -2.2859  -2.2817  -2.2792  -2.2603
    -2.2581  -2.2494  -2.2291  -2.2030  -2.1931  -2.1805  -2.1748  -2.1745
    -2.1703  -2.1649  -2.1598  -2.1506  -2.1489  -2.1455  -2.1418  -2.1384
    -2.1379  -2.1309  -2.1269  -2.1112  -2.1093  -2.1078  -2.1030  -2.0998
    -2.0968  -2.0774  -2.0731  -2.0626  -2.0626  -2.0547  -2.0526  -2.0165
    -1.9843  -1.9835  -1.9489  -1.9358  -1.9334  -1.9279  -1.9182  -1.8998
    -1.8975  -1.8903  -1.8827  -1.8811  -1.8798  -1.8781  -1.8738  -1.8437
    -1.8430  -1.8429  -1.7983  -1.7979  -1.7629  -1.7554  -1.7115  -1.7105
    -1.6970  -1.6768  -1.6697  -1.6680  -1.6581  -1.6530  -1.6382  -1.6316
    -1.6298  -1.6293  -1.6261  -1.6252  -1.6234  -1.6228  -1.6050  -1.6003
    -1.5881  -1.5757  -1.5604  -1.5579  -1.5347  -1.5297  -1.5260  -1.5243
    -1.5201  -1.5183  -1.5053  -1.4946  -1.4834  -1.4774  -1.4702  -1.4610
    -1.4463  -1.4447  -1.4195  -1.4147  -1.4103  -1.4047  -1.3793  -1.3725
    -1.3624  -1.3610  -1.3603  -1.3539  -1.3356  -1.3333  -1.3279  -1.3192
    -1.3137  -1.3086  -1.3023  -1.2986  -1.2966  -1.2902  -1.2840  -1.2748
    -1.2678  -1.2665  -1.2629  -1.2535  -1.2477  -1.2428  -1.2318  -1.2010
    -1.1986  -1.1980  -1.1943  -1.1919  -1.1862  -1.1548  -1.1380  -1.1353
    -1.1343  -1.1338  -1.1287  -1.1265  -1.1167  -1.1118  -1.1095  -1.0749
    -1.0737  -1.0674  -1.0665  -1.0456  -1.0441  -1.0346  -1.0056  -0.9972
    -0.9724  -0.9683  -0.9434  -0.9420  -0.9384  -0.9381  -0.9354  -0.9313
    -0.9276  -0.9266  -0.9244  -0.9217  -0.8919  -0.8898  -0.8699  -0.8691
    -0.8675  -0.8655  -0.8636  -0.8604  -0.8466  -0.5751  -0.5584  -0.4991
    -0.4968  -0.4652  -0.3063  -0.2417  -0.2379  -0.2020   0.0809   0.0820
     0.4131   0.4143   0.5067   0.5097   0.5467   0.5523   0.6960   0.6985
     0.8169   0.8206   0.9137   1.5051   1.5222   1.5244   1.5610   1.5692
     1.6150   1.6220   1.6927   1.6965   1.8975   1.9020   2.1407   2.2126
     2.2201   2.2316   2.6140   2.6201   2.6846   2.6862   2.6911   2.6955
     2.8427   2.8459   2.9015   2.9851   2.9954   3.2169   3.2225   3.3534
     3.3799   3.3852   3.6515   3.6581   3.7710   3.7847   3.7869   3.8595
     3.8847   3.9644   3.9754   4.2038   4.2116   4.2989   4.3034   4.4219
     4.4240   4.4494   4.4552   4.6249   5.2501   5.2736   5.3377   5.3573
     5.3646   5.5260   5.5368   5.6000   5.6469   5.6527   5.6654   5.6852
     5.7022   5.7070   5.7376   5.7456   5.9916   6.0158   6.0257   6.0362
     6.0466   6.0488   6.0562   6.0571   6.1349   6.1529   6.1674   6.1892

          k = 0.2500-0.2500-0.0833 (167653 PWs)   bands (ev):

   -19.3407  -7.1707  -6.9205  -6.3935  -6.3901  -5.9621  -5.5562  -5.4616
    -5.4583  -5.2637  -5.2635  -5.1537  -5.1441  -5.0669  -5.0454  -4.9714
    -4.8865  -4.8830  -4.8462  -4.8428  -4.6838  -4.6675  -4.6656  -4.6637
    -4.6571  -4.6032  -4.6020  -4.5915  -4.5890  -4.5532  -4.5463  -4.5390
    -4.4995  -4.4977  -4.4649  -4.4635  -4.4165  -4.4102  -4.4028  -4.3999
    -4.3938  -4.3820  -4.3806  -4.3418  -4.3224  -4.3215  -4.3145  -4.3138
    -4.2841  -4.2377  -4.2274  -4.2178  -4.2162  -4.2121  -4.2062  -4.2013
    -4.1997  -4.1986  -4.1414  -4.1328  -4.0921  -4.0831  -4.0722  -4.0505
    -4.0455  -4.0341  -4.0226  -4.0226  -4.0185  -4.0161  -3.9680  -3.9671
    -3.9549  -3.9527  -3.8617  -3.8472  -3.8471  -3.8406  -3.8070  -3.8012
    -3.7828  -3.7613  -3.7523  -3.7291  -3.7213  -3.7078  -3.7006  -3.6898
    -3.6860  -3.6502  -3.6315  -3.6240  -3.6177  -3.5898  -3.5885  -3.5866
    -3.5843  -3.5830  -3.5567  -3.5538  -3.5210  -3.5063  -3.5011  -3.4970
    -3.4674  -3.4627  -3.4481  -3.4207  -3.4180  -3.3828  -3.3805  -3.3453
    -3.3375  -3.3365  -3.3237  -3.3229  -3.3177  -3.3147  -3.2832  -3.2682
    -3.2299  -3.2279  -3.2202  -3.2108  -3.2099  -3.2052  -3.1854  -3.1849
    -3.1649  -3.1639  -3.1617  -3.1367  -3.1365  -3.1289  -3.1272  -3.1229
    -3.0892  -3.0875  -3.0520  -3.0491  -3.0487  -3.0474  -3.0455  -2.9664
    -2.9576  -2.9565  -2.9532  -2.9509  -2.9500  -2.9457  -2.9453  -2.9449
    -2.9442  -2.9352  -2.9274  -2.9122  -2.9088  -2.9064  -2.9016  -2.8926
    -2.8896  -2.8510  -2.8491  -2.8489  -2.8442  -2.8432  -2.8270  -2.8253
    -2.8187  -2.8176  -2.8146  -2.7574  -2.7566  -2.7514  -2.7506  -2.7467
    -2.7412  -2.7167  -2.6584  -2.6579  -2.6553  -2.6536  -2.6434  -2.6417
    -2.6335  -2.6277  -2.6248  -2.5909  -2.5870  -2.5837  -2.5818  -2.5781
    -2.5771  -2.5399  -2.5391  -2.5304  -2.5294  -2.5281  -2.5257  -2.4836
    -2.4667  -2.4639  -2.4122  -2.4091  -2.3950  -2.3929  -2.3850  -2.3827
    -2.3399  -2.3338  -2.3126  -2.3022  -2.2859  -2.2817  -2.2792  -2.2603
    -2.2581  -2.2494  -2.2291  -2.2030  -2.1931  -2.1805  -2.1748  -2.1745
    -2.1703  -2.1649  -2.1598  -2.1506  -2.1489  -2.1455  -2.1418  -2.1384
    -2.1379  -2.1309  -2.1269  -2.1112  -2.1093  -2.1078  -2.1030  -2.0998
    -2.0968  -2.0774  -2.0731  -2.0626  -2.0626  -2.0547  -2.0526  -2.0165
    -1.9843  -1.9835  -1.9489  -1.9358  -1.9334  -1.9279  -1.9182  -1.8998
    -1.8975  -1.8903  -1.8827  -1.8811  -1.8798  -1.8781  -1.8738  -1.8437
    -1.8430  -1.8429  -1.7983  -1.7979  -1.7629  -1.7554  -1.7115  -1.7105
    -1.6970  -1.6768  -1.6697  -1.6680  -1.6581  -1.6530  -1.6382  -1.6316
    -1.6298  -1.6293  -1.6261  -1.6252  -1.6234  -1.6228  -1.6050  -1.6003
    -1.5881  -1.5757  -1.5604  -1.5579  -1.5347  -1.5297  -1.5260  -1.5243
    -1.5201  -1.5183  -1.5053  -1.4946  -1.4834  -1.4774  -1.4702  -1.4610
    -1.4463  -1.4447  -1.4195  -1.4147  -1.4103  -1.4047  -1.3793  -1.3725
    -1.3624  -1.3610  -1.3603  -1.3539  -1.3356  -1.3333  -1.3279  -1.3192
    -1.3137  -1.3086  -1.3023  -1.2986  -1.2966  -1.2902  -1.2840  -1.2748
    -1.2678  -1.2665  -1.2629  -1.2535  -1.2477  -1.2428  -1.2318  -1.2010
    -1.1986  -1.1980  -1.1943  -1.1919  -1.1862  -1.1548  -1.1380  -1.1353
    -1.1343  -1.1338  -1.1287  -1.1265  -1.1167  -1.1118  -1.1095  -1.0749
    -1.0737  -1.0674  -1.0665  -1.0456  -1.0441  -1.0346  -1.0056  -0.9972
    -0.9724  -0.9683  -0.9434  -0.9420  -0.9384  -0.9381  -0.9354  -0.9313
    -0.9276  -0.9266  -0.9244  -0.9217  -0.8919  -0.8898  -0.8699  -0.8691
    -0.8675  -0.8655  -0.8636  -0.8604  -0.8466  -0.5751  -0.5584  -0.4991
    -0.4968  -0.4652  -0.3063  -0.2417  -0.2379  -0.2020   0.0809   0.0820
     0.4131   0.4143   0.5067   0.5097   0.5467   0.5523   0.6960   0.6985
     0.8169   0.8206   0.9137   1.5051   1.5222   1.5244   1.5610   1.5692
     1.6150   1.6220   1.6927   1.6965   1.8975   1.9020   2.1407   2.2126
     2.2201   2.2316   2.6140   2.6201   2.6846   2.6862   2.6911   2.6955
     2.8427   2.8459   2.9015   2.9851   2.9954   3.2169   3.2225   3.3534
     3.3799   3.3852   3.6515   3.6581   3.7710   3.7847   3.7869   3.8595
     3.8847   3.9644   3.9754   4.2038   4.2116   4.2989   4.3034   4.4219
     4.4240   4.4494   4.4552   4.6249   5.2501   5.2736   5.3377   5.3573
     5.3646   5.5260   5.5368   5.6000   5.6469   5.6526   5.6655   5.6852
     5.7021   5.7070   5.7376   5.7456   5.9916   6.0158   6.0257   6.0362
     6.0466   6.0488   6.0562   6.0571   6.1349   6.1529   6.1673   6.1892

          k =-0.2500 0.2500 0.2500 (167588 PWs)   bands (ev):

   -19.3407  -7.1707  -6.9205  -6.3935  -6.3901  -5.9621  -5.5562  -5.4616
    -5.4583  -5.2637  -5.2635  -5.1537  -5.1441  -5.0669  -5.0454  -4.9714
    -4.8865  -4.8829  -4.8462  -4.8428  -4.6838  -4.6675  -4.6656  -4.6637
    -4.6571  -4.6032  -4.6020  -4.5915  -4.5890  -4.5532  -4.5463  -4.5390
    -4.4995  -4.4977  -4.4649  -4.4635  -4.4165  -4.4102  -4.4028  -4.3999
    -4.3938  -4.3820  -4.3806  -4.3418  -4.3224  -4.3215  -4.3145  -4.3138
    -4.2841  -4.2377  -4.2274  -4.2178  -4.2162  -4.2121  -4.2062  -4.2013
    -4.1997  -4.1986  -4.1414  -4.1328  -4.0921  -4.0831  -4.0722  -4.0505
    -4.0455  -4.0341  -4.0226  -4.0226  -4.0185  -4.0161  -3.9680  -3.9671
    -3.9549  -3.9527  -3.8617  -3.8472  -3.8471  -3.8406  -3.8070  -3.8012
    -3.7828  -3.7613  -3.7523  -3.7290  -3.7213  -3.7079  -3.7006  -3.6898
    -3.6860  -3.6502  -3.6315  -3.6240  -3.6177  -3.5898  -3.5885  -3.5866
    -3.5843  -3.5830  -3.5567  -3.5538  -3.5210  -3.5063  -3.5011  -3.4970
    -3.4674  -3.4627  -3.4481  -3.4207  -3.4180  -3.3828  -3.3805  -3.3453
    -3.3375  -3.3365  -3.3237  -3.3229  -3.3177  -3.3147  -3.2833  -3.2682
    -3.2299  -3.2279  -3.2202  -3.2108  -3.2099  -3.2052  -3.1854  -3.1850
    -3.1649  -3.1639  -3.1617  -3.1367  -3.1365  -3.1289  -3.1271  -3.1229
    -3.0892  -3.0875  -3.0520  -3.0491  -3.0487  -3.0473  -3.0455  -2.9664
    -2.9576  -2.9565  -2.9532  -2.9509  -2.9500  -2.9457  -2.9453  -2.9449
    -2.9442  -2.9352  -2.9274  -2.9122  -2.9088  -2.9064  -2.9016  -2.8926
    -2.8896  -2.8510  -2.8491  -2.8489  -2.8442  -2.8432  -2.8270  -2.8253
    -2.8187  -2.8176  -2.8146  -2.7574  -2.7566  -2.7514  -2.7506  -2.7467
    -2.7412  -2.7167  -2.6584  -2.6579  -2.6553  -2.6536  -2.6434  -2.6417
    -2.6335  -2.6277  -2.6248  -2.5909  -2.5870  -2.5837  -2.5818  -2.5781
    -2.5771  -2.5399  -2.5391  -2.5304  -2.5294  -2.5281  -2.5257  -2.4836
    -2.4667  -2.4639  -2.4122  -2.4091  -2.3951  -2.3929  -2.3850  -2.3827
    -2.3399  -2.3337  -2.3126  -2.3022  -2.2859  -2.2817  -2.2792  -2.2603
    -2.2581  -2.2494  -2.2291  -2.2030  -2.1931  -2.1805  -2.1748  -2.1745
    -2.1703  -2.1649  -2.1598  -2.1506  -2.1489  -2.1455  -2.1418  -2.1384
    -2.1379  -2.1309  -2.1269  -2.1112  -2.1093  -2.1078  -2.1030  -2.0998
    -2.0968  -2.0774  -2.0731  -2.0626  -2.0626  -2.0547  -2.0526  -2.0165
    -1.9843  -1.9835  -1.9489  -1.9358  -1.9334  -1.9278  -1.9182  -1.8997
    -1.8975  -1.8903  -1.8827  -1.8811  -1.8798  -1.8781  -1.8738  -1.8437
    -1.8430  -1.8429  -1.7983  -1.7979  -1.7629  -1.7554  -1.7115  -1.7105
    -1.6970  -1.6768  -1.6697  -1.6680  -1.6581  -1.6530  -1.6382  -1.6316
    -1.6298  -1.6293  -1.6261  -1.6252  -1.6234  -1.6228  -1.6050  -1.6003
    -1.5881  -1.5757  -1.5604  -1.5579  -1.5347  -1.5297  -1.5260  -1.5243
    -1.5201  -1.5183  -1.5052  -1.4945  -1.4834  -1.4774  -1.4702  -1.4610
    -1.4463  -1.4447  -1.4195  -1.4147  -1.4103  -1.4047  -1.3793  -1.3725
    -1.3623  -1.3610  -1.3603  -1.3539  -1.3356  -1.3333  -1.3279  -1.3192
    -1.3137  -1.3086  -1.3023  -1.2986  -1.2966  -1.2902  -1.2840  -1.2748
    -1.2679  -1.2665  -1.2629  -1.2535  -1.2477  -1.2428  -1.2318  -1.2010
    -1.1986  -1.1980  -1.1943  -1.1919  -1.1862  -1.1548  -1.1380  -1.1353
    -1.1343  -1.1338  -1.1287  -1.1265  -1.1167  -1.1118  -1.1095  -1.0749
    -1.0737  -1.0674  -1.0665  -1.0456  -1.0441  -1.0346  -1.0056  -0.9972
    -0.9724  -0.9683  -0.9434  -0.9420  -0.9384  -0.9381  -0.9354  -0.9313
    -0.9276  -0.9266  -0.9244  -0.9217  -0.8919  -0.8898  -0.8699  -0.8691
    -0.8675  -0.8655  -0.8636  -0.8604  -0.8466  -0.5751  -0.5584  -0.4991
    -0.4968  -0.4652  -0.3063  -0.2417  -0.2379  -0.2020   0.0809   0.0820
     0.4131   0.4143   0.5067   0.5097   0.5467   0.5523   0.6960   0.6985
     0.8169   0.8206   0.9137   1.5051   1.5222   1.5244   1.5610   1.5692
     1.6150   1.6220   1.6927   1.6965   1.8975   1.9020   2.1407   2.2126
     2.2201   2.2316   2.6140   2.6201   2.6846   2.6862   2.6911   2.6955
     2.8427   2.8459   2.9016   2.9851   2.9954   3.2169   3.2225   3.3534
     3.3799   3.3852   3.6515   3.6581   3.7710   3.7847   3.7869   3.8595
     3.8848   3.9644   3.9754   4.2038   4.2115   4.2989   4.3034   4.4219
     4.4240   4.4494   4.4552   4.6250   5.2497   5.2736   5.3268   5.3533
     5.3574   5.5260   5.5367   5.5989   5.6478   5.6527   5.6720   5.6873
     5.7050   5.7206   5.7444   5.7725   5.9919   6.0159   6.0259   6.0363
     6.0468   6.0488   6.0564   6.0571   6.1335   6.1515   6.1593   6.2711

     the Fermi energy is     0.7696 ev

!    total energy              =   -7425.28570320 Ry
     Harris-Foulkes estimate   =   -7425.28570320 Ry
     estimated scf accuracy    <          1.5E-09 Ry

     The total energy is the sum of the following terms:

     one-electron contribution =  -48785.76275200 Ry
     hartree contribution      =   24940.91511416 Ry
     xc contribution           =   -3604.23982531 Ry
     ewald contribution        =   20023.80429064 Ry
     smearing contrib. (-TS)   =      -0.00253069 Ry

     convergence has been achieved in  28 iterations

     Writing output data file 5513613.save

     init_run     :    119.45s CPU    128.96s WALL (       1 calls)
     electrons    :   7468.01s CPU   8010.59s WALL (       1 calls)

     Called by init_run:
     wfcinit      :     81.02s CPU     89.61s WALL (       1 calls)
     potinit      :      7.55s CPU      7.95s WALL (       1 calls)

     Called by electrons:
     c_bands      :   5544.22s CPU   5979.52s WALL (      29 calls)
     sum_band     :   1210.90s CPU   1295.78s WALL (      29 calls)
     v_of_rho     :    147.25s CPU    160.87s WALL (      29 calls)
     newd         :    582.51s CPU    590.35s WALL (      29 calls)
     mix_rho      :      3.94s CPU      4.38s WALL (      29 calls)
     vdW_energy   :     14.13s CPU     15.85s WALL (      29 calls)
     vdW_ffts     :     74.62s CPU     81.47s WALL (      58 calls)
     vdW_v        :     17.29s CPU     18.29s WALL (      29 calls)

     Called by c_bands:
     init_us_2    :     21.99s CPU     22.36s WALL (     354 calls)
     cegterg      :   5485.97s CPU   5919.37s WALL (     174 calls)

     Called by *egterg:
     h_psi        :   2508.74s CPU   2904.10s WALL (     866 calls)
     s_psi        :    381.43s CPU    383.76s WALL (     866 calls)
     g_psi        :      4.70s CPU      4.71s WALL (     686 calls)
     cdiaghg      :   1450.94s CPU   1455.94s WALL (     854 calls)

     Called by h_psi:
     add_vuspsi   :    384.54s CPU    386.85s WALL (     866 calls)

     General routines
     calbec       :    545.67s CPU    549.09s WALL (    1040 calls)
     fft          :    167.55s CPU    178.81s WALL (    1914 calls)
     ffts         :      1.99s CPU      2.25s WALL (      58 calls)
     fftw         :   1685.14s CPU   2058.78s WALL (  469870 calls)
     interpolate  :      5.78s CPU      6.65s WALL (      58 calls)
     davcio       :      0.01s CPU      0.38s WALL (       6 calls)

     Parallel routines
     fft_scatter  :   1203.35s CPU   1490.92s WALL (  471842 calls)

     PWSCF        :     2h 6m CPU        2h16m WALL


   This run was terminated on:   4:36:31  25Jun2015            

=------------------------------------------------------------------------------=
   JOB DONE.
=------------------------------------------------------------------------------=
