Setting SGE environment for SCC

     Program PWSCF v.5.1.2 starts on 26Jun2015 at 13:34: 5 

     This program is part of the open-source Quantum ESPRESSO suite
     for quantum simulation of materials; please cite
         "P. Giannozzi et al., J. Phys.:Condens. Matter 21 395502 (2009);
          URL http://www.quantum-espresso.org", 
     in publications or presentations arising from this work. More details at
     http://www.quantum-espresso.org/quote

     Parallel version (MPI), running on    32 processors
     R & G space division:  proc/nbgrp/npool/nimage =      32
     Reading input from top.O1.Au62.d.3.0.phi.45.psi.180.in
Warning: card &IONS ignored
Warning: card / ignored
Warning: card &CELL ignored
Warning: card / ignored

     Current dimensions of program PWSCF are:
     Max number of different atomic species (ntypx) = 10
     Max number of k-points (npk) =  40000
     Max angular momentum in pseudopotentials (lmaxx) =  3

     IMPORTANT: XC functional enforced from input :
     Exchange-correlation      = VDW-DF ( 1  4  4  0 1 0)
     Any further DFT definition will be discarded
     Please, verify this is what you really want


     Subspace diagonalization in iterative solution of the eigenvalue problem:
     a serial algorithm will be used


     Parallelization info
     --------------------
     sticks:   dense  smooth     PW     G-vecs:    dense   smooth      PW
     Min         578     289     74               118518    41891    5486
     Max         579     290     75               118533    41932    5497
     Sum       18505    9265   2385              3792731  1341081  175711


     Title: 
     top.O1.Au62.d.3.0.phi.45.psi.180                                           


     bravais-lattice index     =            8
     lattice parameter (alat)  =      24.1233  a.u.
     unit-cell volume          =   28076.2361 (a.u.)^3
     number of atoms/cell      =           75
     number of atomic types    =            3
     number of electrons       =       800.00
     number of Kohn-Sham states=          480
     kinetic-energy cutoff     =      50.0000  Ry
     charge density cutoff     =     400.0000  Ry
     convergence threshold     =      1.0E-08
     mixing beta               =       0.7000
     number of iterations used =            8  plain     mixing
     Exchange-correlation      = VDW-DF ( 1  4  4  0 1 0)

     celldm(1)=  24.123277  celldm(2)=   1.000000  celldm(3)=   2.000000
     celldm(4)=   0.000000  celldm(5)=   0.000000  celldm(6)=   0.000000

     crystal axes: (cart. coord. in units of alat)
               a(1) = (   1.000000   0.000000   0.000000 )  
               a(2) = (   0.000000   1.000000   0.000000 )  
               a(3) = (   0.000000   0.000000   2.000000 )  

     reciprocal axes: (cart. coord. in units 2 pi/alat)
               b(1) = (  1.000000  0.000000  0.000000 )  
               b(2) = (  0.000000  1.000000  0.000000 )  
               b(3) = (  0.000000  0.000000  0.500000 )  


     PseudoPot. # 1 for Au read from file:
     /home/scc/andrejb/qe/pseudo/Au.pbe-nd-van.UPF
     MD5 check sum: 458681b50f36d87ef23c61b04bba420a
     Pseudo is Ultrasoft + core correction, Zval = 11.0
     Generated by new atomic code, or converted to UPF format
     Using radial grid of  985 points,  3 beta functions with: 
                l(1) =   1
                l(2) =   2
                l(3) =   2
     Q(r) pseudized with  8 coefficients,  rinner =    1.100   1.100   1.100
                                                       1.100   1.100

     PseudoPot. # 2 for H  read from file:
     /home/scc/andrejb/qe/pseudo/H.pbe-van_ak.UPF
     MD5 check sum: 403db7282739603aa925980fa9b8608d
     Pseudo is Ultrasoft, Zval =  1.0
     Generated by new atomic code, or converted to UPF format
     Using radial grid of  615 points,  1 beta functions with: 
                l(1) =   0
     Q(r) pseudized with  8 coefficients,  rinner =    0.800

     PseudoPot. # 3 for O  read from file:
     /home/scc/andrejb/qe/pseudo/O.pbe-van_ak.UPF
     MD5 check sum: 4b8c549914a63cae506c6ff22b5af4fe
     Pseudo is Ultrasoft, Zval =  6.0
     Generated by new atomic code, or converted to UPF format
     Using radial grid of  737 points,  4 beta functions with: 
                l(1) =   0
                l(2) =   0
                l(3) =   1
                l(4) =   1
     Q(r) pseudized with  8 coefficients,  rinner =    0.800   0.800   0.800


     vdW kernel table read from file vdW_kernel_table
     MD5 check sum: 48e77a2e26edf626eeb0eaa751ad5cac

     atomic species   valence    mass     pseudopotential
        Au            11.00   196.96657     Au( 1.00)
        H              1.00     1.01000     H ( 1.00)
        O              6.00    16.00000     O ( 1.00)

     No symmetry found



   Cartesian axes

     site n.     atom                  positions (alat units)
         1           O   tau(   1) = (   0.4998324   0.3332216   0.7343272  )
         2           H   tau(   2) = (   0.4942419   0.3942089   0.6888333  )
         3           H   tau(   3) = (   0.5052408   0.2740707   0.6864695  )
         4           Au  tau(   4) = (   0.0000000   0.0000000   0.0000000  )
         5           Au  tau(   5) = (   0.3332217   0.0000000   0.0000000  )
         6           Au  tau(   6) = (   0.6664435   0.0000000   0.0000000  )
         7           Au  tau(   7) = (   0.1666109   0.1666109   0.0000000  )
         8           Au  tau(   8) = (   0.4998326   0.1666109   0.0000000  )
         9           Au  tau(   9) = (   0.8330542   0.1666109   0.0000000  )
        10           Au  tau(  10) = (   0.0000000   0.3332217   0.0000000  )
        11           Au  tau(  11) = (   0.3332217   0.3332217   0.0000000  )
        12           Au  tau(  12) = (   0.6664435   0.3332217   0.0000000  )
        13           Au  tau(  13) = (   0.1666109   0.4998326   0.0000000  )
        14           Au  tau(  14) = (   0.4998326   0.4998326   0.0000000  )
        15           Au  tau(  15) = (   0.8330542   0.4998326   0.0000000  )
        16           Au  tau(  16) = (   0.0000000   0.6664435   0.0000000  )
        17           Au  tau(  17) = (   0.3332217   0.6664435   0.0000000  )
        18           Au  tau(  18) = (   0.6664435   0.6664435   0.0000000  )
        19           Au  tau(  19) = (   0.1666109   0.8330542   0.0000000  )
        20           Au  tau(  20) = (   0.4998326   0.8330542   0.0000000  )
        21           Au  tau(  21) = (   0.8330542   0.8330542   0.0000000  )
        22           Au  tau(  22) = (   0.1666109   0.0000000   0.1666109  )
        23           Au  tau(  23) = (   0.4998326   0.0000000   0.1666109  )
        24           Au  tau(  24) = (   0.8330542   0.0000000   0.1666109  )
        25           Au  tau(  25) = (   0.0000000   0.1666109   0.1666109  )
        26           Au  tau(  26) = (   0.3332217   0.1666109   0.1666109  )
        27           Au  tau(  27) = (   0.6664435   0.1666109   0.1666109  )
        28           Au  tau(  28) = (   0.1666109   0.3332217   0.1666109  )
        29           Au  tau(  29) = (   0.4998326   0.3332217   0.1666109  )
        30           Au  tau(  30) = (   0.8330542   0.3332217   0.1666109  )
        31           Au  tau(  31) = (   0.0000000   0.4998326   0.1666109  )
        32           Au  tau(  32) = (   0.3332217   0.4998326   0.1666109  )
        33           Au  tau(  33) = (   0.6664435   0.4998326   0.1666109  )
        34           Au  tau(  34) = (   0.1666109   0.6664435   0.1666109  )
        35           Au  tau(  35) = (   0.4998326   0.6664435   0.1666109  )
        36           Au  tau(  36) = (   0.8330542   0.6664435   0.1666109  )
        37           Au  tau(  37) = (   0.0000000   0.8330542   0.1666109  )
        38           Au  tau(  38) = (   0.3332217   0.8330542   0.1666109  )
        39           Au  tau(  39) = (   0.6664435   0.8330542   0.1666109  )
        40           Au  tau(  40) = (  -0.0000182  -0.0000182   0.3335478  )
        41           Au  tau(  41) = (   0.3332215  -0.0000181   0.3335472  )
        42           Au  tau(  42) = (   0.6664447  -0.0000183   0.3335481  )
        43           Au  tau(  43) = (  -0.0000181   0.3332215   0.3335472  )
        44           Au  tau(  44) = (   0.3332215   0.3332215   0.3335468  )
        45           Au  tau(  45) = (   0.6664445   0.3332215   0.3335478  )
        46           Au  tau(  46) = (  -0.0000183   0.6664447   0.3335481  )
        47           Au  tau(  47) = (   0.3332215   0.6664445   0.3335478  )
        48           Au  tau(  48) = (   0.6664446   0.6664446   0.3335486  )
        49           Au  tau(  49) = (   0.1666097   0.1666097   0.3335483  )
        50           Au  tau(  50) = (   0.4998320   0.1666098   0.3335477  )
        51           Au  tau(  51) = (   0.8330732   0.1666096   0.3335481  )
        52           Au  tau(  52) = (   0.1666098   0.4998320   0.3335477  )
        53           Au  tau(  53) = (   0.4998321   0.4998321   0.3335470  )
        54           Au  tau(  54) = (   0.8330730   0.4998322   0.3335474  )
        55           Au  tau(  55) = (   0.1666096   0.8330732   0.3335481  )
        56           Au  tau(  56) = (   0.4998322   0.8330730   0.3335474  )
        57           Au  tau(  57) = (   0.8330731   0.8330731   0.3335478  )
        58           Au  tau(  58) = (   0.1666104  -0.0000111   0.4993095  )
        59           Au  tau(  59) = (   0.4998323  -0.0000112   0.4993099  )
        60           Au  tau(  60) = (   0.8330661  -0.0000111   0.4993009  )
        61           Au  tau(  61) = (  -0.0000111   0.1666104   0.4993095  )
        62           Au  tau(  62) = (   0.3332214   0.1666106   0.4993185  )
        63           Au  tau(  63) = (   0.6664437   0.1666106   0.4993187  )
        64           Au  tau(  64) = (   0.1666106   0.3332214   0.4993185  )
        65           Au  tau(  65) = (   0.4998324   0.3332216   0.4993185  )
        66           Au  tau(  66) = (   0.8330659   0.3332215   0.4993103  )
        67           Au  tau(  67) = (  -0.0000112   0.4998323   0.4993099  )
        68           Au  tau(  68) = (   0.3332216   0.4998324   0.4993185  )
        69           Au  tau(  69) = (   0.6664436   0.4998325   0.4993187  )
        70           Au  tau(  70) = (   0.1666106   0.6664437   0.4993187  )
        71           Au  tau(  71) = (   0.4998325   0.6664436   0.4993187  )
        72           Au  tau(  72) = (   0.8330658   0.6664438   0.4993102  )
        73           Au  tau(  73) = (  -0.0000111   0.8330661   0.4993009  )
        74           Au  tau(  74) = (   0.3332215   0.8330659   0.4993103  )
        75           Au  tau(  75) = (   0.6664438   0.8330658   0.4993102  )

     number of k points=     6  Marzari-Vanderbilt smearing, width (Ry)=  0.0200
                       cart. coord. in units 2pi/alat
        k(    1) = (   0.2500000   0.2500000   0.0833333), wk =   0.3333333
        k(    2) = (   0.2500000   0.2500000  -0.2500000), wk =   0.3333333
        k(    3) = (  -0.2500000  -0.2500000   0.0833333), wk =   0.3333333
        k(    4) = (  -0.2500000   0.2500000  -0.0833333), wk =   0.3333333
        k(    5) = (   0.2500000  -0.2500000  -0.0833333), wk =   0.3333333
        k(    6) = (  -0.2500000   0.2500000   0.2500000), wk =   0.3333333

     Dense  grid:  3792731 G-vectors     FFT dimensions: ( 160, 160, 320)

     Smooth grid:  1341081 G-vectors     FFT dimensions: ( 120, 120, 225)

     Largest allocated arrays     est. size (Mb)     dimensions
        Kohn-Sham Wavefunctions        38.58 Mb     (    5267,  480)
        NL pseudopotentials            76.03 Mb     (    5267,  946)
        Each V/rho on FFT grid          3.91 Mb     (  256000)
        Each G-vector array             0.90 Mb     (  118520)
        G-vector shells                 0.08 Mb     (   10286)
     Largest temporary arrays     est. size (Mb)     dimensions
        Auxiliary wavefunctions       154.31 Mb     (    5267, 1920)
        Each subspace H/S matrix       56.25 Mb     (    1920, 1920)
        Each <psi_i|beta_j> matrix      6.93 Mb     (     946,  480)
        Arrays for rho mixing          31.25 Mb     (  256000,    8)

     Initial potential from superposition of free atoms
     Check: negative starting charge=   -1.945257

     starting charge  799.16392, renormalised to  800.00000

     negative rho (up, down):  1.947E+00 0.000E+00


     ************************************************************************
     *
     * You are using vdW-DF for exchange-correlation in this calculation.
     * Please cite the following three references that made this development
     * possible:
     *
     *   M. Dion, H. Rydberg, E. Schroder, D. C. Langreth, and
     *   B. I. Lundqvist, Phys. Rev. Lett. 92, 246401 (2004).
     *
     *   T. Thonhauser, V. R. Cooper, S. Li, A. Puzder, P. Hyldgaard, and
     *   D. C. Langreth, Phys. Rev. B 76, 125112 (2007).
     *
     *   G. Roman-Perez and J. M. Soler, Phys. Rev. Lett. 103, 096102 (2009).
     *
     *
     * If you are using vdW-DF2, please also cite:
     *
     *   K. Lee, E. D. Murray, L. Kong, B. I. Lundqvist, and
     *   D. C. Langreth, Phys. Rev. B 82, 081101(R) (2010).
     *
     *
     * If you are calculating the stress with vdW-DF, please also cite:
     *
     *   R. Sabatini, E. Kucukbenli, B. Kolb, T. Thonhauser, and
     *   S. de Gironcoli, J. Phys.: Condens. Matter 24, 424209 (2012).
     *
     ************************************************************************

     Carrying out vdW-DF run using the following parameters:

     Nqs =      20    Nr_points =    1024   r_max =   100.000
     q_mesh =
               0.00001000     0.04494208     0.09755937     0.15916263
               0.23128650     0.31572767     0.41458969     0.53033537
               0.66584808     0.82450364     1.01025438     1.22772762
               1.48234092     1.78043706     2.12944203     2.53805004
               3.01644009     3.57652955     4.23227104     5.00000000

     Gradients computed in reciprocal space

     ************************************************************************


     Starting wfc are  654 randomized atomic wfcs

     total cpu time spent up to now is      103.4 secs

     Self-consistent Calculation

     iteration #  1     ecut=    50.00 Ry     beta=0.70
     Davidson diagonalization with overlap
     ethr =  1.00E-02,  avg # of iterations =  3.0

     Threshold (ethr) on eigenvalues was too large:
     Diagonalizing with lowered threshold

     Davidson diagonalization with overlap
     ethr =  4.14E-04,  avg # of iterations =  2.0

     negative rho (up, down):  1.947E+00 0.000E+00

     total cpu time spent up to now is      462.5 secs

     total energy              =   -7423.06559735 Ry
     Harris-Foulkes estimate   =   -7426.04769817 Ry
     estimated scf accuracy    <       3.68921537 Ry

     iteration #  2     ecut=    50.00 Ry     beta=0.70
     Davidson diagonalization with overlap
     ethr =  4.61E-04,  avg # of iterations = 11.3

     negative rho (up, down):  1.943E+00 0.000E+00

     total cpu time spent up to now is     1154.8 secs

     total energy              =   -7415.50044630 Ry
     Harris-Foulkes estimate   =   -7432.46620276 Ry
     estimated scf accuracy    <      87.72831973 Ry

     iteration #  3     ecut=    50.00 Ry     beta=0.70
     Davidson diagonalization with overlap
     ethr =  4.61E-04,  avg # of iterations =  6.0

     negative rho (up, down):  1.953E+00 0.000E+00

     total cpu time spent up to now is     1552.4 secs

     total energy              =   -7424.00515529 Ry
     Harris-Foulkes estimate   =   -7425.89878218 Ry
     estimated scf accuracy    <       8.17886305 Ry

     iteration #  4     ecut=    50.00 Ry     beta=0.70
     Davidson diagonalization with overlap
     ethr =  4.61E-04,  avg # of iterations =  7.8

     negative rho (up, down):  1.955E+00 0.000E+00

     total cpu time spent up to now is     1796.0 secs

     total energy              =   -7424.70870144 Ry
     Harris-Foulkes estimate   =   -7425.77036267 Ry
     estimated scf accuracy    <       6.54494603 Ry

     iteration #  5     ecut=    50.00 Ry     beta=0.70
     Davidson diagonalization with overlap
     ethr =  4.61E-04,  avg # of iterations =  6.2

     negative rho (up, down):  1.963E+00 0.000E+00

     total cpu time spent up to now is     2018.4 secs

     total energy              =   -7425.10669550 Ry
     Harris-Foulkes estimate   =   -7425.55218696 Ry
     estimated scf accuracy    <       3.13248511 Ry

     iteration #  6     ecut=    50.00 Ry     beta=0.70
     Davidson diagonalization with overlap
     ethr =  3.92E-04,  avg # of iterations =  2.7

     negative rho (up, down):  1.967E+00 0.000E+00

     total cpu time spent up to now is     2192.8 secs

     total energy              =   -7425.27026045 Ry
     Harris-Foulkes estimate   =   -7425.32860693 Ry
     estimated scf accuracy    <       0.20368833 Ry

     iteration #  7     ecut=    50.00 Ry     beta=0.70
     Davidson diagonalization with overlap
     ethr =  2.55E-05,  avg # of iterations =  6.8

     negative rho (up, down):  1.970E+00 0.000E+00

     total cpu time spent up to now is     2450.8 secs

     total energy              =   -7425.27428820 Ry
     Harris-Foulkes estimate   =   -7425.32436275 Ry
     estimated scf accuracy    <       0.26818423 Ry

     iteration #  8     ecut=    50.00 Ry     beta=0.70
     Davidson diagonalization with overlap
     ethr =  2.55E-05,  avg # of iterations =  3.0

     negative rho (up, down):  1.971E+00 0.000E+00

     total cpu time spent up to now is     2640.2 secs

     total energy              =   -7425.28436892 Ry
     Harris-Foulkes estimate   =   -7425.30326458 Ry
     estimated scf accuracy    <       0.07987243 Ry

     iteration #  9     ecut=    50.00 Ry     beta=0.70
     Davidson diagonalization with overlap
     ethr =  9.98E-06,  avg # of iterations =  4.2

     negative rho (up, down):  1.972E+00 0.000E+00

     total cpu time spent up to now is     2839.0 secs

     total energy              =   -7425.28461948 Ry
     Harris-Foulkes estimate   =   -7425.29497153 Ry
     estimated scf accuracy    <       0.03656006 Ry

     iteration # 10     ecut=    50.00 Ry     beta=0.70
     Davidson diagonalization with overlap
     ethr =  4.57E-06,  avg # of iterations = 12.0

     negative rho (up, down):  1.973E+00 0.000E+00

     total cpu time spent up to now is     3128.3 secs

     total energy              =   -7425.28543759 Ry
     Harris-Foulkes estimate   =   -7425.28882768 Ry
     estimated scf accuracy    <       0.01132261 Ry

     iteration # 11     ecut=    50.00 Ry     beta=0.70
     Davidson diagonalization with overlap
     ethr =  1.42E-06,  avg # of iterations =  4.7

     negative rho (up, down):  1.974E+00 0.000E+00

     total cpu time spent up to now is     3329.8 secs

     total energy              =   -7425.28552953 Ry
     Harris-Foulkes estimate   =   -7425.28699150 Ry
     estimated scf accuracy    <       0.00519174 Ry

     iteration # 12     ecut=    50.00 Ry     beta=0.70
     Davidson diagonalization with overlap
     ethr =  6.49E-07,  avg # of iterations =  3.3

     negative rho (up, down):  1.974E+00 0.000E+00

     total cpu time spent up to now is     3514.1 secs

     total energy              =   -7425.28497382 Ry
     Harris-Foulkes estimate   =   -7425.28604782 Ry
     estimated scf accuracy    <       0.00172838 Ry

     iteration # 13     ecut=    50.00 Ry     beta=0.70
     Davidson diagonalization with overlap
     ethr =  2.16E-07,  avg # of iterations =  7.5

     negative rho (up, down):  1.974E+00 0.000E+00

     total cpu time spent up to now is     3880.5 secs

     total energy              =   -7425.28417335 Ry
     Harris-Foulkes estimate   =   -7425.28697539 Ry
     estimated scf accuracy    <       0.01434972 Ry

     iteration # 14     ecut=    50.00 Ry     beta=0.70
     Davidson diagonalization with overlap
     ethr =  2.16E-07,  avg # of iterations =  3.0

     negative rho (up, down):  1.974E+00 0.000E+00

     total cpu time spent up to now is     4115.3 secs

     total energy              =   -7425.28543522 Ry
     Harris-Foulkes estimate   =   -7425.28567473 Ry
     estimated scf accuracy    <       0.00097383 Ry

     iteration # 15     ecut=    50.00 Ry     beta=0.70
     Davidson diagonalization with overlap
     ethr =  1.22E-07,  avg # of iterations =  2.0

     negative rho (up, down):  1.974E+00 0.000E+00

     total cpu time spent up to now is     4288.6 secs

     total energy              =   -7425.28554649 Ry
     Harris-Foulkes estimate   =   -7425.28559702 Ry
     estimated scf accuracy    <       0.00020592 Ry

     iteration # 16     ecut=    50.00 Ry     beta=0.70
     Davidson diagonalization with overlap
     ethr =  2.57E-08,  avg # of iterations =  2.0

     negative rho (up, down):  1.974E+00 0.000E+00

     total cpu time spent up to now is     4470.6 secs

     total energy              =   -7425.28552677 Ry
     Harris-Foulkes estimate   =   -7425.28563013 Ry
     estimated scf accuracy    <       0.00086354 Ry

     iteration # 17     ecut=    50.00 Ry     beta=0.70
     Davidson diagonalization with overlap
     ethr =  2.57E-08,  avg # of iterations =  3.0

     negative rho (up, down):  1.974E+00 0.000E+00

     total cpu time spent up to now is     4653.9 secs

     total energy              =   -7425.28557651 Ry
     Harris-Foulkes estimate   =   -7425.28558263 Ry
     estimated scf accuracy    <       0.00001991 Ry

     iteration # 18     ecut=    50.00 Ry     beta=0.70
     Davidson diagonalization with overlap
     ethr =  2.49E-09,  avg # of iterations =  2.0

     negative rho (up, down):  1.974E+00 0.000E+00

     total cpu time spent up to now is     4840.6 secs

     total energy              =   -7425.28557790 Ry
     Harris-Foulkes estimate   =   -7425.28558276 Ry
     estimated scf accuracy    <       0.00001952 Ry

     iteration # 19     ecut=    50.00 Ry     beta=0.70
     Davidson diagonalization with overlap
     ethr =  2.44E-09,  avg # of iterations =  2.0

     negative rho (up, down):  1.974E+00 0.000E+00

     total cpu time spent up to now is     5011.0 secs

     total energy              =   -7425.28557931 Ry
     Harris-Foulkes estimate   =   -7425.28558228 Ry
     estimated scf accuracy    <       0.00001576 Ry

     iteration # 20     ecut=    50.00 Ry     beta=0.70
     Davidson diagonalization with overlap
     ethr =  1.97E-09,  avg # of iterations =  2.0

     negative rho (up, down):  1.974E+00 0.000E+00

     total cpu time spent up to now is     5202.6 secs

     total energy              =   -7425.28558093 Ry
     Harris-Foulkes estimate   =   -7425.28558107 Ry
     estimated scf accuracy    <       0.00000083 Ry

     iteration # 21     ecut=    50.00 Ry     beta=0.70
     Davidson diagonalization with overlap
     ethr =  1.04E-10,  avg # of iterations =  3.0

     negative rho (up, down):  1.974E+00 0.000E+00

     total cpu time spent up to now is     5414.9 secs

     total energy              =   -7425.28558111 Ry
     Harris-Foulkes estimate   =   -7425.28558110 Ry
     estimated scf accuracy    <       0.00000010 Ry

     iteration # 22     ecut=    50.00 Ry     beta=0.70
     Davidson diagonalization with overlap
     ethr =  1.20E-11,  avg # of iterations =  3.0

     negative rho (up, down):  1.974E+00 0.000E+00

     total cpu time spent up to now is     5651.5 secs

     total energy              =   -7425.28558110 Ry
     Harris-Foulkes estimate   =   -7425.28558116 Ry
     estimated scf accuracy    <       0.00000022 Ry

     iteration # 23     ecut=    50.00 Ry     beta=0.70
     Davidson diagonalization with overlap
     ethr =  1.20E-11,  avg # of iterations =  3.0

     negative rho (up, down):  1.974E+00 0.000E+00

     total cpu time spent up to now is     5847.6 secs

     total energy              =   -7425.28558112 Ry
     Harris-Foulkes estimate   =   -7425.28558114 Ry
     estimated scf accuracy    <       0.00000006 Ry

     iteration # 24     ecut=    50.00 Ry     beta=0.70
     Davidson diagonalization with overlap
     ethr =  7.96E-12,  avg # of iterations =  2.0

     negative rho (up, down):  1.974E+00 0.000E+00

     total cpu time spent up to now is     6054.7 secs

     total energy              =   -7425.28558114 Ry
     Harris-Foulkes estimate   =   -7425.28558114 Ry
     estimated scf accuracy    <       0.00000010 Ry

     iteration # 25     ecut=    50.00 Ry     beta=0.70
     Davidson diagonalization with overlap
     ethr =  7.96E-12,  avg # of iterations =  2.0

     negative rho (up, down):  1.974E+00 0.000E+00

     total cpu time spent up to now is     6232.8 secs

     total energy              =   -7425.28558114 Ry
     Harris-Foulkes estimate   =   -7425.28558115 Ry
     estimated scf accuracy    <       0.00000003 Ry

     iteration # 26     ecut=    50.00 Ry     beta=0.70
     Davidson diagonalization with overlap
     ethr =  3.79E-12,  avg # of iterations =  2.0

     negative rho (up, down):  1.974E+00 0.000E+00

     total cpu time spent up to now is     6412.8 secs

     total energy              =   -7425.28558115 Ry
     Harris-Foulkes estimate   =   -7425.28558115 Ry
     estimated scf accuracy    <       0.00000001 Ry

     iteration # 27     ecut=    50.00 Ry     beta=0.70
     Davidson diagonalization with overlap
     ethr =  1.40E-12,  avg # of iterations =  3.0

     negative rho (up, down):  1.974E+00 0.000E+00

     total cpu time spent up to now is     6600.4 secs

     total energy              =   -7425.28558115 Ry
     Harris-Foulkes estimate   =   -7425.28558115 Ry
     estimated scf accuracy    <       0.00000004 Ry

     iteration # 28     ecut=    50.00 Ry     beta=0.70
     Davidson diagonalization with overlap
     ethr =  1.40E-12,  avg # of iterations =  2.0

     negative rho (up, down):  1.974E+00 0.000E+00

     total cpu time spent up to now is     6778.8 secs

     End of self-consistent calculation

          k = 0.2500 0.2500 0.0833 (167653 PWs)   bands (ev):

   -19.3456  -7.1757  -6.9200  -6.3924  -6.3901  -5.9616  -5.5557  -5.4606
    -5.4583  -5.2631  -5.2630  -5.1521  -5.1443  -5.0664  -5.0452  -4.9710
    -4.8860  -4.8822  -4.8451  -4.8424  -4.6835  -4.6669  -4.6646  -4.6636
    -4.6566  -4.6028  -4.6015  -4.5907  -4.5890  -4.5524  -4.5456  -4.5392
    -4.4990  -4.4973  -4.4644  -4.4630  -4.4148  -4.4102  -4.4027  -4.3993
    -4.3933  -4.3815  -4.3801  -4.3420  -4.3216  -4.3213  -4.3138  -4.3135
    -4.2844  -4.2378  -4.2238  -4.2169  -4.2161  -4.2120  -4.2057  -4.2003
    -4.1992  -4.1982  -4.1393  -4.1330  -4.0926  -4.0833  -4.0719  -4.0486
    -4.0450  -4.0325  -4.0225  -4.0216  -4.0181  -4.0156  -3.9677  -3.9666
    -3.9541  -3.9527  -3.8632  -3.8472  -3.8460  -3.8407  -3.8067  -3.8010
    -3.7822  -3.7604  -3.7518  -3.7289  -3.7212  -3.7072  -3.7003  -3.6890
    -3.6861  -3.6499  -3.6312  -3.6231  -3.6173  -3.5899  -3.5879  -3.5860
    -3.5840  -3.5819  -3.5563  -3.5535  -3.5205  -3.5073  -3.4999  -3.4969
    -3.4665  -3.4625  -3.4477  -3.4199  -3.4176  -3.3820  -3.3804  -3.3448
    -3.3370  -3.3360  -3.3230  -3.3226  -3.3172  -3.3141  -3.2827  -3.2677
    -3.2294  -3.2274  -3.2197  -3.2105  -3.2093  -3.2044  -3.1850  -3.1847
    -3.1640  -3.1631  -3.1619  -3.1361  -3.1361  -3.1284  -3.1264  -3.1227
    -3.0887  -3.0864  -3.0516  -3.0489  -3.0479  -3.0468  -3.0450  -2.9659
    -2.9567  -2.9553  -2.9524  -2.9509  -2.9498  -2.9455  -2.9444  -2.9443
    -2.9437  -2.9347  -2.9269  -2.9117  -2.9081  -2.9060  -2.9006  -2.8921
    -2.8892  -2.8505  -2.8486  -2.8483  -2.8434  -2.8432  -2.8263  -2.8252
    -2.8181  -2.8173  -2.8141  -2.7569  -2.7560  -2.7506  -2.7499  -2.7462
    -2.7408  -2.7163  -2.6578  -2.6572  -2.6550  -2.6530  -2.6427  -2.6412
    -2.6332  -2.6267  -2.6245  -2.5907  -2.5875  -2.5828  -2.5807  -2.5778
    -2.5773  -2.5398  -2.5392  -2.5299  -2.5292  -2.5271  -2.5255  -2.4831
    -2.4666  -2.4632  -2.4114  -2.4089  -2.3949  -2.3921  -2.3844  -2.3824
    -2.3389  -2.3340  -2.3122  -2.3010  -2.2852  -2.2813  -2.2787  -2.2595
    -2.2577  -2.2489  -2.2285  -2.1999  -2.1928  -2.1806  -2.1747  -2.1742
    -2.1692  -2.1649  -2.1571  -2.1498  -2.1479  -2.1455  -2.1415  -2.1385
    -2.1377  -2.1300  -2.1272  -2.1110  -2.1088  -2.1070  -2.1022  -2.0990
    -2.0967  -2.0766  -2.0733  -2.0621  -2.0619  -2.0546  -2.0518  -2.0160
    -1.9836  -1.9834  -1.9484  -1.9340  -1.9326  -1.9266  -1.9186  -1.9006
    -1.8967  -1.8880  -1.8814  -1.8810  -1.8789  -1.8776  -1.8739  -1.8434
    -1.8427  -1.8420  -1.7982  -1.7976  -1.7614  -1.7556  -1.7118  -1.7104
    -1.6968  -1.6761  -1.6693  -1.6674  -1.6589  -1.6519  -1.6388  -1.6310
    -1.6299  -1.6282  -1.6252  -1.6248  -1.6228  -1.6222  -1.6039  -1.6002
    -1.5871  -1.5749  -1.5596  -1.5575  -1.5379  -1.5288  -1.5249  -1.5242
    -1.5220  -1.5176  -1.5021  -1.4938  -1.4830  -1.4784  -1.4701  -1.4605
    -1.4455  -1.4442  -1.4183  -1.4157  -1.4088  -1.4051  -1.3791  -1.3701
    -1.3623  -1.3608  -1.3587  -1.3536  -1.3362  -1.3312  -1.3277  -1.3204
    -1.3122  -1.3086  -1.3016  -1.2983  -1.2972  -1.2871  -1.2839  -1.2739
    -1.2660  -1.2657  -1.2619  -1.2518  -1.2470  -1.2427  -1.2328  -1.2020
    -1.1967  -1.1962  -1.1937  -1.1913  -1.1878  -1.1547  -1.1366  -1.1349
    -1.1337  -1.1334  -1.1301  -1.1260  -1.1208  -1.1110  -1.1097  -1.0742
    -1.0730  -1.0670  -1.0657  -1.0447  -1.0438  -1.0342  -1.0059  -0.9967
    -0.9714  -0.9682  -0.9423  -0.9413  -0.9381  -0.9379  -0.9349  -0.9305
    -0.9271  -0.9252  -0.9234  -0.9215  -0.8908  -0.8899  -0.8714  -0.8687
    -0.8658  -0.8653  -0.8633  -0.8588  -0.8462  -0.5744  -0.5579  -0.5011
    -0.4944  -0.4645  -0.3041  -0.2398  -0.2380  -0.2009   0.0801   0.0833
     0.4125   0.4162   0.5084   0.5095   0.5495   0.5518   0.6956   0.6995
     0.8173   0.8208   0.9140   1.5063   1.5228   1.5241   1.5584   1.5698
     1.6182   1.6203   1.6948   1.6958   1.8998   1.9011   2.1400   2.2156
     2.2183   2.2324   2.6167   2.6171   2.6849   2.6866   2.6928   2.6953
     2.8443   2.8455   2.9024   2.9925   2.9931   3.2221   3.2237   3.3539
     3.3821   3.3833   3.6559   3.6568   3.7689   3.7856   3.7865   3.8674
     3.8782   3.9679   3.9746   4.2066   4.2112   4.2995   4.3025   4.4190
     4.4275   4.4474   4.4517   4.6206   5.2496   5.2666   5.3550   5.3567
     5.3577   5.5331   5.5346   5.5995   5.6414   5.6535   5.6691   5.6959
     5.7023   5.7141   5.7292   5.7476   5.9999   6.0176   6.0231   6.0398
     6.0484   6.0492   6.0513   6.0575   6.1354   6.1485   6.1756   6.1828

          k = 0.2500 0.2500-0.2500 (167588 PWs)   bands (ev):

   -19.3456  -7.1757  -6.9200  -6.3924  -6.3901  -5.9616  -5.5557  -5.4606
    -5.4583  -5.2631  -5.2630  -5.1521  -5.1443  -5.0664  -5.0452  -4.9710
    -4.8860  -4.8822  -4.8450  -4.8424  -4.6835  -4.6669  -4.6646  -4.6636
    -4.6566  -4.6028  -4.6015  -4.5907  -4.5890  -4.5524  -4.5456  -4.5392
    -4.4990  -4.4973  -4.4644  -4.4630  -4.4148  -4.4102  -4.4027  -4.3993
    -4.3933  -4.3815  -4.3801  -4.3420  -4.3216  -4.3213  -4.3138  -4.3135
    -4.2844  -4.2378  -4.2238  -4.2169  -4.2161  -4.2120  -4.2057  -4.2003
    -4.1992  -4.1982  -4.1393  -4.1330  -4.0926  -4.0833  -4.0719  -4.0485
    -4.0450  -4.0325  -4.0225  -4.0216  -4.0181  -4.0156  -3.9677  -3.9666
    -3.9541  -3.9527  -3.8632  -3.8472  -3.8460  -3.8407  -3.8067  -3.8010
    -3.7822  -3.7604  -3.7518  -3.7289  -3.7212  -3.7072  -3.7003  -3.6890
    -3.6861  -3.6499  -3.6312  -3.6231  -3.6173  -3.5899  -3.5879  -3.5860
    -3.5840  -3.5819  -3.5563  -3.5535  -3.5205  -3.5073  -3.4999  -3.4969
    -3.4665  -3.4625  -3.4477  -3.4199  -3.4176  -3.3820  -3.3804  -3.3448
    -3.3370  -3.3360  -3.3230  -3.3226  -3.3172  -3.3141  -3.2827  -3.2677
    -3.2294  -3.2274  -3.2197  -3.2105  -3.2092  -3.2044  -3.1850  -3.1847
    -3.1640  -3.1631  -3.1619  -3.1361  -3.1361  -3.1283  -3.1264  -3.1227
    -3.0887  -3.0864  -3.0516  -3.0489  -3.0479  -3.0468  -3.0450  -2.9659
    -2.9567  -2.9553  -2.9524  -2.9509  -2.9498  -2.9455  -2.9444  -2.9443
    -2.9437  -2.9347  -2.9269  -2.9117  -2.9081  -2.9060  -2.9006  -2.8921
    -2.8892  -2.8505  -2.8486  -2.8483  -2.8434  -2.8432  -2.8263  -2.8252
    -2.8181  -2.8173  -2.8141  -2.7569  -2.7560  -2.7506  -2.7499  -2.7462
    -2.7407  -2.7164  -2.6578  -2.6572  -2.6549  -2.6530  -2.6427  -2.6412
    -2.6332  -2.6267  -2.6245  -2.5907  -2.5875  -2.5828  -2.5806  -2.5778
    -2.5773  -2.5398  -2.5392  -2.5299  -2.5292  -2.5271  -2.5255  -2.4831
    -2.4666  -2.4632  -2.4113  -2.4088  -2.3949  -2.3921  -2.3844  -2.3824
    -2.3389  -2.3340  -2.3123  -2.3010  -2.2852  -2.2813  -2.2787  -2.2595
    -2.2577  -2.2489  -2.2285  -2.1999  -2.1928  -2.1806  -2.1747  -2.1742
    -2.1692  -2.1649  -2.1571  -2.1498  -2.1479  -2.1455  -2.1415  -2.1385
    -2.1377  -2.1300  -2.1272  -2.1110  -2.1088  -2.1070  -2.1022  -2.0990
    -2.0967  -2.0766  -2.0733  -2.0621  -2.0619  -2.0545  -2.0518  -2.0160
    -1.9836  -1.9834  -1.9484  -1.9340  -1.9326  -1.9266  -1.9185  -1.9006
    -1.8967  -1.8880  -1.8814  -1.8810  -1.8789  -1.8776  -1.8738  -1.8434
    -1.8427  -1.8420  -1.7982  -1.7976  -1.7614  -1.7556  -1.7118  -1.7104
    -1.6968  -1.6761  -1.6693  -1.6674  -1.6589  -1.6519  -1.6388  -1.6310
    -1.6299  -1.6282  -1.6252  -1.6248  -1.6228  -1.6222  -1.6039  -1.6002
    -1.5871  -1.5749  -1.5596  -1.5575  -1.5379  -1.5288  -1.5249  -1.5242
    -1.5219  -1.5176  -1.5021  -1.4938  -1.4830  -1.4784  -1.4701  -1.4605
    -1.4455  -1.4442  -1.4183  -1.4157  -1.4088  -1.4051  -1.3791  -1.3701
    -1.3623  -1.3608  -1.3587  -1.3536  -1.3362  -1.3312  -1.3277  -1.3204
    -1.3122  -1.3086  -1.3016  -1.2983  -1.2972  -1.2871  -1.2839  -1.2739
    -1.2660  -1.2656  -1.2619  -1.2518  -1.2470  -1.2427  -1.2328  -1.2020
    -1.1967  -1.1962  -1.1937  -1.1913  -1.1878  -1.1547  -1.1366  -1.1349
    -1.1337  -1.1334  -1.1301  -1.1260  -1.1208  -1.1110  -1.1097  -1.0742
    -1.0730  -1.0670  -1.0657  -1.0447  -1.0438  -1.0342  -1.0059  -0.9967
    -0.9714  -0.9682  -0.9423  -0.9413  -0.9382  -0.9379  -0.9349  -0.9305
    -0.9271  -0.9252  -0.9234  -0.9215  -0.8908  -0.8899  -0.8714  -0.8687
    -0.8658  -0.8653  -0.8633  -0.8588  -0.8462  -0.5744  -0.5579  -0.5011
    -0.4944  -0.4645  -0.3041  -0.2398  -0.2380  -0.2009   0.0801   0.0833
     0.4125   0.4162   0.5084   0.5095   0.5496   0.5518   0.6956   0.6995
     0.8173   0.8208   0.9140   1.5063   1.5228   1.5241   1.5584   1.5698
     1.6182   1.6203   1.6948   1.6958   1.8998   1.9011   2.1400   2.2156
     2.2183   2.2324   2.6167   2.6171   2.6849   2.6866   2.6928   2.6953
     2.8443   2.8455   2.9024   2.9925   2.9931   3.2221   3.2237   3.3539
     3.3821   3.3833   3.6559   3.6568   3.7689   3.7856   3.7865   3.8675
     3.8782   3.9679   3.9746   4.2066   4.2112   4.2995   4.3025   4.4190
     4.4275   4.4474   4.4517   4.6207   5.2489   5.2667   5.3347   5.3556
     5.3573   5.5331   5.5345   5.5987   5.6422   5.6536   5.6833   5.6962
     5.7056   5.7106   5.7463   5.7746   6.0000   6.0177   6.0233   6.0400
     6.0484   6.0494   6.0513   6.0575   6.1356   6.1470   6.1595   6.2796

          k =-0.2500-0.2500 0.0833 (167653 PWs)   bands (ev):

   -19.3456  -7.1757  -6.9200  -6.3924  -6.3901  -5.9616  -5.5557  -5.4606
    -5.4583  -5.2631  -5.2630  -5.1521  -5.1443  -5.0664  -5.0452  -4.9710
    -4.8860  -4.8822  -4.8451  -4.8424  -4.6835  -4.6669  -4.6646  -4.6636
    -4.6566  -4.6028  -4.6015  -4.5907  -4.5890  -4.5524  -4.5456  -4.5392
    -4.4990  -4.4973  -4.4644  -4.4630  -4.4148  -4.4102  -4.4027  -4.3993
    -4.3933  -4.3815  -4.3801  -4.3420  -4.3216  -4.3213  -4.3138  -4.3135
    -4.2844  -4.2378  -4.2238  -4.2169  -4.2161  -4.2120  -4.2057  -4.2003
    -4.1992  -4.1982  -4.1393  -4.1330  -4.0926  -4.0833  -4.0719  -4.0486
    -4.0450  -4.0325  -4.0225  -4.0216  -4.0181  -4.0156  -3.9677  -3.9666
    -3.9541  -3.9527  -3.8632  -3.8472  -3.8460  -3.8407  -3.8067  -3.8010
    -3.7822  -3.7604  -3.7518  -3.7289  -3.7212  -3.7072  -3.7003  -3.6890
    -3.6861  -3.6499  -3.6312  -3.6231  -3.6173  -3.5899  -3.5879  -3.5860
    -3.5840  -3.5819  -3.5563  -3.5535  -3.5205  -3.5073  -3.4999  -3.4969
    -3.4665  -3.4625  -3.4477  -3.4199  -3.4176  -3.3820  -3.3804  -3.3448
    -3.3370  -3.3360  -3.3230  -3.3226  -3.3172  -3.3141  -3.2827  -3.2677
    -3.2294  -3.2274  -3.2197  -3.2105  -3.2093  -3.2044  -3.1850  -3.1847
    -3.1640  -3.1631  -3.1619  -3.1361  -3.1361  -3.1284  -3.1264  -3.1227
    -3.0887  -3.0864  -3.0516  -3.0489  -3.0479  -3.0468  -3.0450  -2.9659
    -2.9567  -2.9553  -2.9524  -2.9509  -2.9498  -2.9455  -2.9444  -2.9443
    -2.9437  -2.9347  -2.9269  -2.9117  -2.9081  -2.9060  -2.9006  -2.8921
    -2.8892  -2.8505  -2.8486  -2.8483  -2.8434  -2.8432  -2.8263  -2.8252
    -2.8181  -2.8173  -2.8141  -2.7569  -2.7560  -2.7506  -2.7499  -2.7462
    -2.7408  -2.7163  -2.6578  -2.6572  -2.6550  -2.6530  -2.6427  -2.6412
    -2.6332  -2.6267  -2.6245  -2.5907  -2.5875  -2.5828  -2.5807  -2.5778
    -2.5773  -2.5398  -2.5392  -2.5299  -2.5292  -2.5271  -2.5255  -2.4831
    -2.4666  -2.4632  -2.4114  -2.4089  -2.3949  -2.3921  -2.3844  -2.3824
    -2.3389  -2.3340  -2.3122  -2.3010  -2.2852  -2.2813  -2.2787  -2.2595
    -2.2577  -2.2489  -2.2285  -2.1999  -2.1928  -2.1806  -2.1747  -2.1742
    -2.1692  -2.1649  -2.1571  -2.1498  -2.1479  -2.1455  -2.1415  -2.1385
    -2.1377  -2.1300  -2.1272  -2.1110  -2.1088  -2.1070  -2.1022  -2.0990
    -2.0967  -2.0766  -2.0733  -2.0621  -2.0619  -2.0546  -2.0518  -2.0160
    -1.9836  -1.9834  -1.9484  -1.9340  -1.9326  -1.9266  -1.9186  -1.9006
    -1.8967  -1.8880  -1.8814  -1.8810  -1.8789  -1.8776  -1.8739  -1.8434
    -1.8427  -1.8420  -1.7982  -1.7976  -1.7614  -1.7556  -1.7118  -1.7104
    -1.6968  -1.6761  -1.6693  -1.6674  -1.6589  -1.6519  -1.6388  -1.6310
    -1.6299  -1.6282  -1.6252  -1.6248  -1.6228  -1.6222  -1.6039  -1.6002
    -1.5871  -1.5749  -1.5596  -1.5575  -1.5379  -1.5288  -1.5249  -1.5242
    -1.5220  -1.5176  -1.5021  -1.4938  -1.4830  -1.4784  -1.4701  -1.4605
    -1.4455  -1.4442  -1.4183  -1.4157  -1.4088  -1.4051  -1.3791  -1.3701
    -1.3623  -1.3608  -1.3587  -1.3536  -1.3362  -1.3312  -1.3277  -1.3204
    -1.3122  -1.3086  -1.3016  -1.2983  -1.2972  -1.2871  -1.2839  -1.2739
    -1.2660  -1.2657  -1.2619  -1.2518  -1.2470  -1.2427  -1.2328  -1.2020
    -1.1967  -1.1962  -1.1937  -1.1913  -1.1878  -1.1547  -1.1366  -1.1349
    -1.1337  -1.1334  -1.1301  -1.1260  -1.1208  -1.1110  -1.1097  -1.0742
    -1.0730  -1.0670  -1.0657  -1.0447  -1.0438  -1.0342  -1.0059  -0.9967
    -0.9714  -0.9682  -0.9423  -0.9413  -0.9381  -0.9379  -0.9349  -0.9305
    -0.9271  -0.9252  -0.9234  -0.9215  -0.8908  -0.8899  -0.8714  -0.8687
    -0.8658  -0.8653  -0.8633  -0.8588  -0.8462  -0.5744  -0.5579  -0.5011
    -0.4944  -0.4645  -0.3041  -0.2398  -0.2380  -0.2009   0.0801   0.0833
     0.4125   0.4162   0.5084   0.5095   0.5495   0.5518   0.6956   0.6995
     0.8173   0.8208   0.9140   1.5063   1.5228   1.5241   1.5584   1.5698
     1.6182   1.6203   1.6948   1.6958   1.8998   1.9011   2.1400   2.2156
     2.2183   2.2324   2.6167   2.6171   2.6849   2.6866   2.6928   2.6953
     2.8443   2.8455   2.9024   2.9925   2.9931   3.2221   3.2237   3.3539
     3.3821   3.3833   3.6559   3.6568   3.7689   3.7856   3.7865   3.8674
     3.8782   3.9679   3.9746   4.2066   4.2112   4.2995   4.3025   4.4190
     4.4275   4.4474   4.4517   4.6206   5.2496   5.2666   5.3550   5.3567
     5.3576   5.5331   5.5346   5.5995   5.6414   5.6535   5.6691   5.6959
     5.7023   5.7142   5.7291   5.7476   5.9999   6.0176   6.0231   6.0398
     6.0484   6.0492   6.0513   6.0575   6.1354   6.1485   6.1756   6.1827

          k =-0.2500 0.2500-0.0833 (167653 PWs)   bands (ev):

   -19.3456  -7.1757  -6.9200  -6.3926  -6.3899  -5.9616  -5.5557  -5.4608
    -5.4581  -5.2632  -5.2630  -5.1525  -5.1441  -5.0664  -5.0451  -4.9710
    -4.8859  -4.8823  -4.8453  -4.8424  -4.6834  -4.6669  -4.6648  -4.6634
    -4.6566  -4.6028  -4.6015  -4.5908  -4.5888  -4.5525  -4.5457  -4.5389
    -4.4990  -4.4973  -4.4644  -4.4630  -4.4153  -4.4100  -4.4025  -4.3993
    -4.3933  -4.3815  -4.3801  -4.3417  -4.3217  -4.3212  -4.3139  -4.3134
    -4.2841  -4.2376  -4.2250  -4.2170  -4.2160  -4.2118  -4.2057  -4.2005
    -4.1992  -4.1981  -4.1399  -4.1327  -4.0923  -4.0830  -4.0718  -4.0491
    -4.0450  -4.0329  -4.0222  -4.0220  -4.0181  -4.0156  -3.9676  -3.9666
    -3.9542  -3.9525  -3.8626  -3.8470  -3.8462  -3.8404  -3.8067  -3.8010
    -3.7822  -3.7606  -3.7518  -3.7288  -3.7211  -3.7073  -3.7002  -3.6891
    -3.6859  -3.6503  -3.6311  -3.6234  -3.6172  -3.5898  -3.5879  -3.5861
    -3.5839  -3.5821  -3.5563  -3.5534  -3.5205  -3.5071  -3.4999  -3.4967
    -3.4666  -3.4624  -3.4477  -3.4200  -3.4175  -3.3821  -3.3803  -3.3448
    -3.3370  -3.3360  -3.3230  -3.3226  -3.3172  -3.3141  -3.2827  -3.2677
    -3.2294  -3.2274  -3.2197  -3.2102  -3.2095  -3.2045  -3.1849  -3.1846
    -3.1640  -3.1633  -3.1616  -3.1361  -3.1361  -3.1284  -3.1265  -3.1226
    -3.0887  -3.0866  -3.0515  -3.0488  -3.0480  -3.0468  -3.0450  -2.9659
    -2.9568  -2.9556  -2.9525  -2.9507  -2.9497  -2.9454  -2.9445  -2.9443
    -2.9437  -2.9347  -2.9269  -2.9117  -2.9082  -2.9060  -2.9008  -2.8921
    -2.8892  -2.8505  -2.8485  -2.8484  -2.8435  -2.8430  -2.8264  -2.8250
    -2.8181  -2.8172  -2.8141  -2.7569  -2.7561  -2.7507  -2.7500  -2.7462
    -2.7407  -2.7163  -2.6577  -2.6575  -2.6548  -2.6531  -2.6428  -2.6412
    -2.6331  -2.6269  -2.6244  -2.5906  -2.5871  -2.5830  -2.5808  -2.5777
    -2.5770  -2.5396  -2.5390  -2.5299  -2.5291  -2.5273  -2.5254  -2.4831
    -2.4664  -2.4633  -2.4115  -2.4088  -2.3948  -2.3921  -2.3845  -2.3823
    -2.3391  -2.3337  -2.3122  -2.3013  -2.2853  -2.2812  -2.2787  -2.2596
    -2.2577  -2.2489  -2.2285  -2.2009  -2.1927  -2.1803  -2.1746  -2.1742
    -2.1694  -2.1647  -2.1578  -2.1499  -2.1481  -2.1453  -2.1415  -2.1381
    -2.1377  -2.1302  -2.1269  -2.1109  -2.1088  -2.1071  -2.1023  -2.0991
    -2.0965  -2.0767  -2.0731  -2.0620  -2.0620  -2.0544  -2.0519  -2.0160
    -1.9835  -1.9833  -1.9484  -1.9345  -1.9328  -1.9270  -1.9182  -1.9003
    -1.8967  -1.8887  -1.8817  -1.8809  -1.8790  -1.8776  -1.8736  -1.8433
    -1.8426  -1.8421  -1.7981  -1.7975  -1.7618  -1.7553  -1.7114  -1.7103
    -1.6967  -1.6762  -1.6693  -1.6674  -1.6586  -1.6521  -1.6385  -1.6308
    -1.6296  -1.6285  -1.6251  -1.6250  -1.6229  -1.6222  -1.6041  -1.6000
    -1.5873  -1.5750  -1.5599  -1.5574  -1.5365  -1.5289  -1.5251  -1.5241
    -1.5210  -1.5179  -1.5031  -1.4939  -1.4830  -1.4777  -1.4700  -1.4605
    -1.4457  -1.4442  -1.4186  -1.4152  -1.4092  -1.4048  -1.3793  -1.3706
    -1.3621  -1.3607  -1.3593  -1.3534  -1.3361  -1.3317  -1.3278  -1.3199
    -1.3124  -1.3084  -1.3017  -1.2982  -1.2968  -1.2881  -1.2838  -1.2739
    -1.2665  -1.2658  -1.2622  -1.2524  -1.2471  -1.2426  -1.2323  -1.2015
    -1.1972  -1.1966  -1.1938  -1.1913  -1.1869  -1.1546  -1.1369  -1.1348
    -1.1336  -1.1335  -1.1292  -1.1260  -1.1194  -1.1111  -1.1095  -1.0738
    -1.0735  -1.0669  -1.0658  -1.0449  -1.0437  -1.0342  -1.0056  -0.9967
    -0.9715  -0.9681  -0.9425  -0.9414  -0.9380  -0.9379  -0.9349  -0.9306
    -0.9271  -0.9256  -0.9236  -0.9214  -0.8910  -0.8897  -0.8707  -0.8686
    -0.8662  -0.8653  -0.8632  -0.8592  -0.8462  -0.5745  -0.5579  -0.5002
    -0.4951  -0.4646  -0.3048  -0.2404  -0.2378  -0.2011   0.0807   0.0829
     0.4133   0.4153   0.5080   0.5097   0.5486   0.5521   0.6969   0.6984
     0.8173   0.8209   0.9141   1.5060   1.5228   1.5245   1.5595   1.5698
     1.6184   1.6199   1.6947   1.6957   1.8992   1.9016   2.1405   2.2147
     2.2192   2.2323   2.6160   2.6184   2.6852   2.6864   2.6924   2.6956
     2.8439   2.8459   2.9025   2.9903   2.9938   3.2217   3.2225   3.3540
     3.3815   3.3843   3.6550   3.6570   3.7707   3.7855   3.7868   3.8639
     3.8808   3.9667   3.9751   4.2058   4.2116   4.3010   4.3015   4.4202
     4.4266   4.4488   4.4532   4.6225   5.2498   5.2690   5.3495   5.3565
     5.3602   5.5308   5.5352   5.5993   5.6426   5.6532   5.6682   5.6922
     5.7021   5.7115   5.7325   5.7470   6.0050   6.0087   6.0233   6.0390
     6.0486   6.0488   6.0528   6.0575   6.1356   6.1498   6.1725   6.1856

          k = 0.2500-0.2500-0.0833 (167653 PWs)   bands (ev):

   -19.3456  -7.1757  -6.9200  -6.3926  -6.3899  -5.9616  -5.5557  -5.4608
    -5.4581  -5.2632  -5.2630  -5.1525  -5.1441  -5.0664  -5.0451  -4.9710
    -4.8859  -4.8823  -4.8453  -4.8424  -4.6834  -4.6669  -4.6648  -4.6634
    -4.6566  -4.6028  -4.6015  -4.5908  -4.5888  -4.5525  -4.5457  -4.5389
    -4.4990  -4.4973  -4.4644  -4.4630  -4.4153  -4.4100  -4.4025  -4.3993
    -4.3933  -4.3815  -4.3801  -4.3417  -4.3217  -4.3212  -4.3139  -4.3134
    -4.2841  -4.2376  -4.2250  -4.2170  -4.2160  -4.2118  -4.2057  -4.2005
    -4.1992  -4.1981  -4.1399  -4.1327  -4.0923  -4.0830  -4.0718  -4.0491
    -4.0450  -4.0329  -4.0222  -4.0220  -4.0181  -4.0156  -3.9676  -3.9666
    -3.9542  -3.9525  -3.8626  -3.8470  -3.8462  -3.8404  -3.8067  -3.8010
    -3.7822  -3.7606  -3.7518  -3.7288  -3.7211  -3.7073  -3.7002  -3.6891
    -3.6859  -3.6503  -3.6311  -3.6234  -3.6172  -3.5898  -3.5879  -3.5861
    -3.5839  -3.5821  -3.5563  -3.5534  -3.5205  -3.5071  -3.4999  -3.4967
    -3.4666  -3.4624  -3.4477  -3.4200  -3.4175  -3.3821  -3.3803  -3.3448
    -3.3370  -3.3360  -3.3230  -3.3226  -3.3172  -3.3141  -3.2827  -3.2677
    -3.2294  -3.2274  -3.2197  -3.2102  -3.2095  -3.2045  -3.1849  -3.1846
    -3.1640  -3.1633  -3.1616  -3.1361  -3.1361  -3.1284  -3.1265  -3.1226
    -3.0887  -3.0866  -3.0515  -3.0488  -3.0480  -3.0468  -3.0450  -2.9659
    -2.9568  -2.9556  -2.9525  -2.9507  -2.9497  -2.9454  -2.9445  -2.9443
    -2.9437  -2.9347  -2.9269  -2.9117  -2.9082  -2.9060  -2.9008  -2.8921
    -2.8892  -2.8505  -2.8485  -2.8484  -2.8435  -2.8430  -2.8264  -2.8250
    -2.8181  -2.8172  -2.8141  -2.7569  -2.7561  -2.7507  -2.7500  -2.7462
    -2.7407  -2.7163  -2.6577  -2.6575  -2.6548  -2.6531  -2.6428  -2.6412
    -2.6331  -2.6269  -2.6244  -2.5906  -2.5871  -2.5830  -2.5808  -2.5777
    -2.5770  -2.5396  -2.5390  -2.5299  -2.5291  -2.5273  -2.5254  -2.4831
    -2.4664  -2.4633  -2.4115  -2.4088  -2.3948  -2.3921  -2.3845  -2.3823
    -2.3391  -2.3337  -2.3122  -2.3013  -2.2853  -2.2812  -2.2787  -2.2596
    -2.2577  -2.2489  -2.2285  -2.2009  -2.1927  -2.1803  -2.1746  -2.1742
    -2.1694  -2.1647  -2.1578  -2.1499  -2.1481  -2.1453  -2.1415  -2.1381
    -2.1377  -2.1302  -2.1269  -2.1109  -2.1088  -2.1071  -2.1023  -2.0991
    -2.0965  -2.0767  -2.0731  -2.0620  -2.0620  -2.0544  -2.0519  -2.0160
    -1.9835  -1.9833  -1.9484  -1.9345  -1.9328  -1.9270  -1.9182  -1.9003
    -1.8967  -1.8887  -1.8817  -1.8809  -1.8790  -1.8776  -1.8736  -1.8433
    -1.8426  -1.8421  -1.7981  -1.7975  -1.7618  -1.7553  -1.7114  -1.7103
    -1.6967  -1.6762  -1.6693  -1.6674  -1.6586  -1.6521  -1.6385  -1.6308
    -1.6296  -1.6285  -1.6251  -1.6250  -1.6229  -1.6222  -1.6041  -1.6000
    -1.5873  -1.5750  -1.5599  -1.5574  -1.5365  -1.5289  -1.5251  -1.5241
    -1.5210  -1.5179  -1.5031  -1.4939  -1.4830  -1.4777  -1.4700  -1.4605
    -1.4457  -1.4442  -1.4186  -1.4152  -1.4092  -1.4048  -1.3793  -1.3706
    -1.3621  -1.3607  -1.3593  -1.3534  -1.3361  -1.3317  -1.3278  -1.3199
    -1.3124  -1.3084  -1.3017  -1.2982  -1.2968  -1.2881  -1.2838  -1.2739
    -1.2665  -1.2658  -1.2622  -1.2524  -1.2471  -1.2426  -1.2323  -1.2015
    -1.1972  -1.1966  -1.1938  -1.1913  -1.1869  -1.1546  -1.1369  -1.1348
    -1.1336  -1.1335  -1.1292  -1.1260  -1.1194  -1.1111  -1.1095  -1.0738
    -1.0735  -1.0669  -1.0658  -1.0449  -1.0437  -1.0342  -1.0056  -0.9967
    -0.9715  -0.9681  -0.9425  -0.9414  -0.9380  -0.9379  -0.9349  -0.9306
    -0.9271  -0.9256  -0.9236  -0.9214  -0.8910  -0.8897  -0.8707  -0.8686
    -0.8662  -0.8653  -0.8632  -0.8592  -0.8462  -0.5745  -0.5579  -0.5002
    -0.4951  -0.4646  -0.3048  -0.2404  -0.2378  -0.2011   0.0807   0.0829
     0.4133   0.4153   0.5080   0.5097   0.5486   0.5521   0.6969   0.6984
     0.8173   0.8209   0.9141   1.5060   1.5228   1.5245   1.5595   1.5698
     1.6184   1.6199   1.6947   1.6957   1.8992   1.9016   2.1405   2.2147
     2.2192   2.2323   2.6160   2.6184   2.6852   2.6864   2.6924   2.6956
     2.8439   2.8459   2.9025   2.9903   2.9938   3.2217   3.2225   3.3540
     3.3815   3.3843   3.6550   3.6570   3.7707   3.7855   3.7868   3.8639
     3.8808   3.9667   3.9751   4.2058   4.2116   4.3010   4.3015   4.4202
     4.4266   4.4488   4.4532   4.6225   5.2498   5.2690   5.3495   5.3565
     5.3602   5.5308   5.5352   5.5993   5.6426   5.6532   5.6683   5.6922
     5.7021   5.7114   5.7325   5.7470   6.0050   6.0087   6.0233   6.0390
     6.0486   6.0488   6.0528   6.0575   6.1356   6.1498   6.1724   6.1856

          k =-0.2500 0.2500 0.2500 (167588 PWs)   bands (ev):

   -19.3456  -7.1757  -6.9200  -6.3926  -6.3899  -5.9616  -5.5557  -5.4608
    -5.4581  -5.2632  -5.2630  -5.1525  -5.1441  -5.0664  -5.0451  -4.9710
    -4.8859  -4.8823  -4.8453  -4.8424  -4.6834  -4.6669  -4.6648  -4.6634
    -4.6566  -4.6028  -4.6015  -4.5908  -4.5888  -4.5525  -4.5457  -4.5389
    -4.4990  -4.4973  -4.4644  -4.4630  -4.4153  -4.4100  -4.4025  -4.3993
    -4.3933  -4.3815  -4.3801  -4.3417  -4.3217  -4.3212  -4.3139  -4.3134
    -4.2841  -4.2376  -4.2250  -4.2170  -4.2159  -4.2118  -4.2057  -4.2005
    -4.1992  -4.1981  -4.1399  -4.1327  -4.0923  -4.0830  -4.0718  -4.0491
    -4.0450  -4.0329  -4.0221  -4.0220  -4.0180  -4.0156  -3.9676  -3.9666
    -3.9542  -3.9525  -3.8626  -3.8470  -3.8462  -3.8404  -3.8067  -3.8010
    -3.7822  -3.7606  -3.7518  -3.7288  -3.7210  -3.7073  -3.7002  -3.6891
    -3.6859  -3.6503  -3.6311  -3.6234  -3.6172  -3.5898  -3.5879  -3.5861
    -3.5839  -3.5821  -3.5563  -3.5534  -3.5205  -3.5071  -3.4999  -3.4967
    -3.4666  -3.4624  -3.4477  -3.4200  -3.4175  -3.3821  -3.3803  -3.3448
    -3.3370  -3.3360  -3.3230  -3.3226  -3.3172  -3.3141  -3.2827  -3.2677
    -3.2294  -3.2274  -3.2197  -3.2102  -3.2095  -3.2045  -3.1849  -3.1846
    -3.1640  -3.1633  -3.1616  -3.1361  -3.1361  -3.1283  -3.1265  -3.1226
    -3.0887  -3.0866  -3.0515  -3.0488  -3.0480  -3.0468  -3.0450  -2.9659
    -2.9568  -2.9556  -2.9525  -2.9507  -2.9497  -2.9454  -2.9445  -2.9443
    -2.9437  -2.9347  -2.9269  -2.9117  -2.9082  -2.9060  -2.9008  -2.8921
    -2.8891  -2.8505  -2.8485  -2.8484  -2.8435  -2.8430  -2.8264  -2.8250
    -2.8181  -2.8172  -2.8141  -2.7569  -2.7561  -2.7507  -2.7500  -2.7462
    -2.7407  -2.7163  -2.6577  -2.6575  -2.6548  -2.6531  -2.6428  -2.6412
    -2.6331  -2.6269  -2.6244  -2.5906  -2.5871  -2.5830  -2.5808  -2.5777
    -2.5770  -2.5396  -2.5390  -2.5299  -2.5291  -2.5273  -2.5254  -2.4831
    -2.4664  -2.4633  -2.4115  -2.4087  -2.3949  -2.3922  -2.3845  -2.3823
    -2.3391  -2.3337  -2.3122  -2.3013  -2.2853  -2.2812  -2.2787  -2.2596
    -2.2576  -2.2489  -2.2285  -2.2009  -2.1927  -2.1803  -2.1746  -2.1742
    -2.1694  -2.1647  -2.1578  -2.1499  -2.1481  -2.1453  -2.1415  -2.1381
    -2.1377  -2.1302  -2.1269  -2.1109  -2.1088  -2.1071  -2.1023  -2.0991
    -2.0965  -2.0767  -2.0731  -2.0620  -2.0620  -2.0544  -2.0519  -2.0160
    -1.9835  -1.9833  -1.9484  -1.9345  -1.9328  -1.9270  -1.9182  -1.9002
    -1.8967  -1.8887  -1.8817  -1.8809  -1.8790  -1.8776  -1.8736  -1.8433
    -1.8426  -1.8421  -1.7981  -1.7975  -1.7618  -1.7553  -1.7114  -1.7103
    -1.6967  -1.6762  -1.6693  -1.6674  -1.6586  -1.6521  -1.6385  -1.6308
    -1.6296  -1.6285  -1.6251  -1.6250  -1.6229  -1.6222  -1.6041  -1.6000
    -1.5873  -1.5750  -1.5599  -1.5574  -1.5365  -1.5289  -1.5251  -1.5241
    -1.5210  -1.5179  -1.5031  -1.4939  -1.4830  -1.4777  -1.4700  -1.4605
    -1.4456  -1.4442  -1.4186  -1.4152  -1.4092  -1.4048  -1.3792  -1.3706
    -1.3621  -1.3607  -1.3593  -1.3534  -1.3361  -1.3317  -1.3278  -1.3199
    -1.3124  -1.3084  -1.3017  -1.2982  -1.2968  -1.2881  -1.2838  -1.2739
    -1.2665  -1.2658  -1.2622  -1.2524  -1.2471  -1.2426  -1.2323  -1.2015
    -1.1972  -1.1966  -1.1938  -1.1913  -1.1869  -1.1546  -1.1369  -1.1348
    -1.1336  -1.1335  -1.1292  -1.1260  -1.1194  -1.1111  -1.1095  -1.0738
    -1.0735  -1.0669  -1.0658  -1.0449  -1.0437  -1.0342  -1.0056  -0.9967
    -0.9715  -0.9680  -0.9425  -0.9414  -0.9380  -0.9379  -0.9349  -0.9306
    -0.9271  -0.9256  -0.9236  -0.9214  -0.8910  -0.8897  -0.8707  -0.8686
    -0.8662  -0.8653  -0.8632  -0.8592  -0.8462  -0.5745  -0.5579  -0.5002
    -0.4951  -0.4646  -0.3048  -0.2404  -0.2378  -0.2011   0.0807   0.0829
     0.4133   0.4153   0.5080   0.5097   0.5486   0.5521   0.6969   0.6984
     0.8174   0.8209   0.9141   1.5060   1.5228   1.5245   1.5595   1.5698
     1.6184   1.6199   1.6947   1.6957   1.8992   1.9016   2.1405   2.2147
     2.2192   2.2323   2.6160   2.6184   2.6852   2.6864   2.6924   2.6956
     2.8439   2.8459   2.9025   2.9903   2.9938   3.2217   3.2225   3.3540
     3.3815   3.3843   3.6550   3.6570   3.7707   3.7855   3.7868   3.8639
     3.8809   3.9667   3.9751   4.2058   4.2116   4.3010   4.3015   4.4202
     4.4266   4.4488   4.4532   4.6226   5.2491   5.2690   5.3333   5.3546
     5.3565   5.5308   5.5351   5.5984   5.6436   5.6533   5.6796   5.6929
     5.7057   5.7141   5.7454   5.7743   6.0050   6.0089   6.0234   6.0392
     6.0486   6.0489   6.0529   6.0575   6.1355   6.1479   6.1597   6.2762

     the Fermi energy is     0.7701 ev

!    total energy              =   -7425.28558115 Ry
     Harris-Foulkes estimate   =   -7425.28558115 Ry
     estimated scf accuracy    <          2.1E-09 Ry

     The total energy is the sum of the following terms:

     one-electron contribution =  -48785.77984740 Ry
     hartree contribution      =   24940.93704249 Ry
     xc contribution           =   -3604.23979878 Ry
     ewald contribution        =   20023.79955716 Ry
     smearing contrib. (-TS)   =      -0.00253462 Ry

     convergence has been achieved in  28 iterations

     Writing output data file 2158796.save

     init_run     :     94.04s CPU    102.01s WALL (       1 calls)
     electrons    :   6333.18s CPU   6676.00s WALL (       1 calls)

     Called by init_run:
     wfcinit      :     68.99s CPU     76.12s WALL (       1 calls)
     potinit      :      6.48s CPU      6.94s WALL (       1 calls)

     Called by electrons:
     c_bands      :   5200.56s CPU   5468.62s WALL (      29 calls)
     sum_band     :    745.72s CPU    801.94s WALL (      29 calls)
     v_of_rho     :     99.62s CPU    113.16s WALL (      29 calls)
     newd         :    294.67s CPU    298.81s WALL (      29 calls)
     mix_rho      :      2.88s CPU      3.38s WALL (      29 calls)
     vdW_energy   :      8.89s CPU      9.54s WALL (      29 calls)
     vdW_ffts     :     48.59s CPU     56.19s WALL (      58 calls)
     vdW_v        :     12.16s CPU     13.16s WALL (      29 calls)

     Called by c_bands:
     init_us_2    :     14.08s CPU     14.40s WALL (     354 calls)
     cegterg      :   5109.88s CPU   5376.80s WALL (     174 calls)

     Called by *egterg:
     h_psi        :   2027.40s CPU   2267.30s WALL (     879 calls)
     s_psi        :    368.98s CPU    370.70s WALL (     879 calls)
     g_psi        :      4.79s CPU      4.76s WALL (     699 calls)
     cdiaghg      :   1532.76s CPU   1536.27s WALL (     867 calls)

     Called by h_psi:
     add_vuspsi   :    372.95s CPU    374.62s WALL (     879 calls)

     General routines
     calbec       :    551.81s CPU    553.60s WALL (    1053 calls)
     fft          :     98.43s CPU    111.53s WALL (    1914 calls)
     ffts         :      1.13s CPU      1.50s WALL (      58 calls)
     fftw         :   1434.53s CPU   1699.29s WALL (  471396 calls)
     interpolate  :      3.32s CPU      4.26s WALL (      58 calls)
     davcio       :      0.02s CPU      0.14s WALL (       6 calls)

     Parallel routines
     fft_scatter  :    979.71s CPU   1173.17s WALL (  473368 calls)

     PWSCF        :     1h47m CPU        1h53m WALL


   This run was terminated on:  15:27:23  26Jun2015            

=------------------------------------------------------------------------------=
   JOB DONE.
=------------------------------------------------------------------------------=
