Setting SGE environment for SCC

     Program PWSCF v.5.1.2 starts on 29Jun2015 at 23:27:38 

     This program is part of the open-source Quantum ESPRESSO suite
     for quantum simulation of materials; please cite
         "P. Giannozzi et al., J. Phys.:Condens. Matter 21 395502 (2009);
          URL http://www.quantum-espresso.org", 
     in publications or presentations arising from this work. More details at
     http://www.quantum-espresso.org/quote

     Parallel version (MPI), running on    32 processors
     R & G space division:  proc/nbgrp/npool/nimage =      32
     Reading input from top.H2.Au62.d.2.1.phi.45.psi.0.in
Warning: card &IONS ignored
Warning: card / ignored
Warning: card &CELL ignored
Warning: card / ignored

     Current dimensions of program PWSCF are:
     Max number of different atomic species (ntypx) = 10
     Max number of k-points (npk) =  40000
     Max angular momentum in pseudopotentials (lmaxx) =  3

     IMPORTANT: XC functional enforced from input :
     Exchange-correlation      = VDW-DF ( 1  4  4  0 1 0)
     Any further DFT definition will be discarded
     Please, verify this is what you really want


     Subspace diagonalization in iterative solution of the eigenvalue problem:
     a serial algorithm will be used


     Parallelization info
     --------------------
     sticks:   dense  smooth     PW     G-vecs:    dense   smooth      PW
     Min         578     289     74               118518    41891    5486
     Max         579     290     75               118533    41932    5497
     Sum       18505    9265   2385              3792731  1341081  175711


     Title: 
     top.H2.Au62.d.2.1.phi.45.psi.0                                             


     bravais-lattice index     =            8
     lattice parameter (alat)  =      24.1233  a.u.
     unit-cell volume          =   28076.2361 (a.u.)^3
     number of atoms/cell      =           75
     number of atomic types    =            3
     number of electrons       =       800.00
     number of Kohn-Sham states=          480
     kinetic-energy cutoff     =      50.0000  Ry
     charge density cutoff     =     400.0000  Ry
     convergence threshold     =      1.0E-08
     mixing beta               =       0.7000
     number of iterations used =            8  plain     mixing
     Exchange-correlation      = VDW-DF ( 1  4  4  0 1 0)

     celldm(1)=  24.123277  celldm(2)=   1.000000  celldm(3)=   2.000000
     celldm(4)=   0.000000  celldm(5)=   0.000000  celldm(6)=   0.000000

     crystal axes: (cart. coord. in units of alat)
               a(1) = (   1.000000   0.000000   0.000000 )  
               a(2) = (   0.000000   1.000000   0.000000 )  
               a(3) = (   0.000000   0.000000   2.000000 )  

     reciprocal axes: (cart. coord. in units 2 pi/alat)
               b(1) = (  1.000000  0.000000  0.000000 )  
               b(2) = (  0.000000  1.000000  0.000000 )  
               b(3) = (  0.000000  0.000000  0.500000 )  


     PseudoPot. # 1 for Au read from file:
     /home/scc/andrejb/qe/pseudo/Au.pbe-nd-van.UPF
     MD5 check sum: 458681b50f36d87ef23c61b04bba420a
     Pseudo is Ultrasoft + core correction, Zval = 11.0
     Generated by new atomic code, or converted to UPF format
     Using radial grid of  985 points,  3 beta functions with: 
                l(1) =   1
                l(2) =   2
                l(3) =   2
     Q(r) pseudized with  8 coefficients,  rinner =    1.100   1.100   1.100
                                                       1.100   1.100

     PseudoPot. # 2 for H  read from file:
     /home/scc/andrejb/qe/pseudo/H.pbe-van_ak.UPF
     MD5 check sum: 403db7282739603aa925980fa9b8608d
     Pseudo is Ultrasoft, Zval =  1.0
     Generated by new atomic code, or converted to UPF format
     Using radial grid of  615 points,  1 beta functions with: 
                l(1) =   0
     Q(r) pseudized with  8 coefficients,  rinner =    0.800

     PseudoPot. # 3 for O  read from file:
     /home/scc/andrejb/qe/pseudo/O.pbe-van_ak.UPF
     MD5 check sum: 4b8c549914a63cae506c6ff22b5af4fe
     Pseudo is Ultrasoft, Zval =  6.0
     Generated by new atomic code, or converted to UPF format
     Using radial grid of  737 points,  4 beta functions with: 
                l(1) =   0
                l(2) =   0
                l(3) =   1
                l(4) =   1
     Q(r) pseudized with  8 coefficients,  rinner =    0.800   0.800   0.800


     vdW kernel table read from file vdW_kernel_table
     MD5 check sum: 48e77a2e26edf626eeb0eaa751ad5cac

     atomic species   valence    mass     pseudopotential
        Au            11.00   196.96657     Au( 1.00)
        H              1.00     1.01000     H ( 1.00)
        O              6.00    16.00000     O ( 1.00)

     No symmetry found



   Cartesian axes

     site n.     atom                  positions (alat units)
         1           O   tau(   1) = (   0.5018890   0.3557659   0.7366801  )
         2           H   tau(   2) = (   0.4998324   0.3332216   0.6638246  )
         3           H   tau(   3) = (   0.4959856   0.2912036   0.7768708  )
         4           Au  tau(   4) = (   0.0000000   0.0000000   0.0000000  )
         5           Au  tau(   5) = (   0.3332217   0.0000000   0.0000000  )
         6           Au  tau(   6) = (   0.6664435   0.0000000   0.0000000  )
         7           Au  tau(   7) = (   0.1666109   0.1666109   0.0000000  )
         8           Au  tau(   8) = (   0.4998326   0.1666109   0.0000000  )
         9           Au  tau(   9) = (   0.8330542   0.1666109   0.0000000  )
        10           Au  tau(  10) = (   0.0000000   0.3332217   0.0000000  )
        11           Au  tau(  11) = (   0.3332217   0.3332217   0.0000000  )
        12           Au  tau(  12) = (   0.6664435   0.3332217   0.0000000  )
        13           Au  tau(  13) = (   0.1666109   0.4998326   0.0000000  )
        14           Au  tau(  14) = (   0.4998326   0.4998326   0.0000000  )
        15           Au  tau(  15) = (   0.8330542   0.4998326   0.0000000  )
        16           Au  tau(  16) = (   0.0000000   0.6664435   0.0000000  )
        17           Au  tau(  17) = (   0.3332217   0.6664435   0.0000000  )
        18           Au  tau(  18) = (   0.6664435   0.6664435   0.0000000  )
        19           Au  tau(  19) = (   0.1666109   0.8330542   0.0000000  )
        20           Au  tau(  20) = (   0.4998326   0.8330542   0.0000000  )
        21           Au  tau(  21) = (   0.8330542   0.8330542   0.0000000  )
        22           Au  tau(  22) = (   0.1666109   0.0000000   0.1666109  )
        23           Au  tau(  23) = (   0.4998326   0.0000000   0.1666109  )
        24           Au  tau(  24) = (   0.8330542   0.0000000   0.1666109  )
        25           Au  tau(  25) = (   0.0000000   0.1666109   0.1666109  )
        26           Au  tau(  26) = (   0.3332217   0.1666109   0.1666109  )
        27           Au  tau(  27) = (   0.6664435   0.1666109   0.1666109  )
        28           Au  tau(  28) = (   0.1666109   0.3332217   0.1666109  )
        29           Au  tau(  29) = (   0.4998326   0.3332217   0.1666109  )
        30           Au  tau(  30) = (   0.8330542   0.3332217   0.1666109  )
        31           Au  tau(  31) = (   0.0000000   0.4998326   0.1666109  )
        32           Au  tau(  32) = (   0.3332217   0.4998326   0.1666109  )
        33           Au  tau(  33) = (   0.6664435   0.4998326   0.1666109  )
        34           Au  tau(  34) = (   0.1666109   0.6664435   0.1666109  )
        35           Au  tau(  35) = (   0.4998326   0.6664435   0.1666109  )
        36           Au  tau(  36) = (   0.8330542   0.6664435   0.1666109  )
        37           Au  tau(  37) = (   0.0000000   0.8330542   0.1666109  )
        38           Au  tau(  38) = (   0.3332217   0.8330542   0.1666109  )
        39           Au  tau(  39) = (   0.6664435   0.8330542   0.1666109  )
        40           Au  tau(  40) = (  -0.0000182  -0.0000182   0.3335478  )
        41           Au  tau(  41) = (   0.3332215  -0.0000181   0.3335472  )
        42           Au  tau(  42) = (   0.6664447  -0.0000183   0.3335481  )
        43           Au  tau(  43) = (  -0.0000181   0.3332215   0.3335472  )
        44           Au  tau(  44) = (   0.3332215   0.3332215   0.3335468  )
        45           Au  tau(  45) = (   0.6664445   0.3332215   0.3335478  )
        46           Au  tau(  46) = (  -0.0000183   0.6664447   0.3335481  )
        47           Au  tau(  47) = (   0.3332215   0.6664445   0.3335478  )
        48           Au  tau(  48) = (   0.6664446   0.6664446   0.3335486  )
        49           Au  tau(  49) = (   0.1666097   0.1666097   0.3335483  )
        50           Au  tau(  50) = (   0.4998320   0.1666098   0.3335477  )
        51           Au  tau(  51) = (   0.8330732   0.1666096   0.3335481  )
        52           Au  tau(  52) = (   0.1666098   0.4998320   0.3335477  )
        53           Au  tau(  53) = (   0.4998321   0.4998321   0.3335470  )
        54           Au  tau(  54) = (   0.8330730   0.4998322   0.3335474  )
        55           Au  tau(  55) = (   0.1666096   0.8330732   0.3335481  )
        56           Au  tau(  56) = (   0.4998322   0.8330730   0.3335474  )
        57           Au  tau(  57) = (   0.8330731   0.8330731   0.3335478  )
        58           Au  tau(  58) = (   0.1666104  -0.0000111   0.4993095  )
        59           Au  tau(  59) = (   0.4998323  -0.0000112   0.4993099  )
        60           Au  tau(  60) = (   0.8330661  -0.0000111   0.4993009  )
        61           Au  tau(  61) = (  -0.0000111   0.1666104   0.4993095  )
        62           Au  tau(  62) = (   0.3332214   0.1666106   0.4993185  )
        63           Au  tau(  63) = (   0.6664437   0.1666106   0.4993187  )
        64           Au  tau(  64) = (   0.1666106   0.3332214   0.4993185  )
        65           Au  tau(  65) = (   0.4998324   0.3332216   0.4993185  )
        66           Au  tau(  66) = (   0.8330659   0.3332215   0.4993103  )
        67           Au  tau(  67) = (  -0.0000112   0.4998323   0.4993099  )
        68           Au  tau(  68) = (   0.3332216   0.4998324   0.4993185  )
        69           Au  tau(  69) = (   0.6664436   0.4998325   0.4993187  )
        70           Au  tau(  70) = (   0.1666106   0.6664437   0.4993187  )
        71           Au  tau(  71) = (   0.4998325   0.6664436   0.4993187  )
        72           Au  tau(  72) = (   0.8330658   0.6664438   0.4993102  )
        73           Au  tau(  73) = (  -0.0000111   0.8330661   0.4993009  )
        74           Au  tau(  74) = (   0.3332215   0.8330659   0.4993103  )
        75           Au  tau(  75) = (   0.6664438   0.8330658   0.4993102  )

     number of k points=     6  Marzari-Vanderbilt smearing, width (Ry)=  0.0200
                       cart. coord. in units 2pi/alat
        k(    1) = (   0.2500000   0.2500000   0.0833333), wk =   0.3333333
        k(    2) = (   0.2500000   0.2500000  -0.2500000), wk =   0.3333333
        k(    3) = (  -0.2500000  -0.2500000   0.0833333), wk =   0.3333333
        k(    4) = (  -0.2500000   0.2500000  -0.0833333), wk =   0.3333333
        k(    5) = (   0.2500000  -0.2500000  -0.0833333), wk =   0.3333333
        k(    6) = (  -0.2500000   0.2500000   0.2500000), wk =   0.3333333

     Dense  grid:  3792731 G-vectors     FFT dimensions: ( 160, 160, 320)

     Smooth grid:  1341081 G-vectors     FFT dimensions: ( 120, 120, 225)

     Largest allocated arrays     est. size (Mb)     dimensions
        Kohn-Sham Wavefunctions        38.58 Mb     (    5267,  480)
        NL pseudopotentials            76.03 Mb     (    5267,  946)
        Each V/rho on FFT grid          3.91 Mb     (  256000)
        Each G-vector array             0.90 Mb     (  118520)
        G-vector shells                 0.08 Mb     (   10286)
     Largest temporary arrays     est. size (Mb)     dimensions
        Auxiliary wavefunctions       154.31 Mb     (    5267, 1920)
        Each subspace H/S matrix       56.25 Mb     (    1920, 1920)
        Each <psi_i|beta_j> matrix      6.93 Mb     (     946,  480)
        Arrays for rho mixing          31.25 Mb     (  256000,    8)

     Initial potential from superposition of free atoms
     Check: negative starting charge=   -1.945116

     starting charge  799.16392, renormalised to  800.00000

     negative rho (up, down):  1.947E+00 0.000E+00


     ************************************************************************
     *
     * You are using vdW-DF for exchange-correlation in this calculation.
     * Please cite the following three references that made this development
     * possible:
     *
     *   M. Dion, H. Rydberg, E. Schroder, D. C. Langreth, and
     *   B. I. Lundqvist, Phys. Rev. Lett. 92, 246401 (2004).
     *
     *   T. Thonhauser, V. R. Cooper, S. Li, A. Puzder, P. Hyldgaard, and
     *   D. C. Langreth, Phys. Rev. B 76, 125112 (2007).
     *
     *   G. Roman-Perez and J. M. Soler, Phys. Rev. Lett. 103, 096102 (2009).
     *
     *
     * If you are using vdW-DF2, please also cite:
     *
     *   K. Lee, E. D. Murray, L. Kong, B. I. Lundqvist, and
     *   D. C. Langreth, Phys. Rev. B 82, 081101(R) (2010).
     *
     *
     * If you are calculating the stress with vdW-DF, please also cite:
     *
     *   R. Sabatini, E. Kucukbenli, B. Kolb, T. Thonhauser, and
     *   S. de Gironcoli, J. Phys.: Condens. Matter 24, 424209 (2012).
     *
     ************************************************************************

     Carrying out vdW-DF run using the following parameters:

     Nqs =      20    Nr_points =    1024   r_max =   100.000
     q_mesh =
               0.00001000     0.04494208     0.09755937     0.15916263
               0.23128650     0.31572767     0.41458969     0.53033537
               0.66584808     0.82450364     1.01025438     1.22772762
               1.48234092     1.78043706     2.12944203     2.53805004
               3.01644009     3.57652955     4.23227104     5.00000000

     Gradients computed in reciprocal space

     ************************************************************************


     Starting wfc are  654 randomized atomic wfcs

     total cpu time spent up to now is      116.9 secs

     Self-consistent Calculation

     iteration #  1     ecut=    50.00 Ry     beta=0.70
     Davidson diagonalization with overlap
     ethr =  1.00E-02,  avg # of iterations =  3.0

     Threshold (ethr) on eigenvalues was too large:
     Diagonalizing with lowered threshold

     Davidson diagonalization with overlap
     ethr =  4.14E-04,  avg # of iterations =  2.0

     negative rho (up, down):  1.947E+00 0.000E+00

     total cpu time spent up to now is      536.3 secs

     total energy              =   -7423.07355975 Ry
     Harris-Foulkes estimate   =   -7426.05258367 Ry
     estimated scf accuracy    <       3.68192863 Ry

     iteration #  2     ecut=    50.00 Ry     beta=0.70
     Davidson diagonalization with overlap
     ethr =  4.60E-04,  avg # of iterations = 11.3

     negative rho (up, down):  1.943E+00 0.000E+00

     total cpu time spent up to now is     1283.4 secs

     total energy              =   -7415.57999439 Ry
     Harris-Foulkes estimate   =   -7432.38442890 Ry
     estimated scf accuracy    <      86.42079338 Ry

     iteration #  3     ecut=    50.00 Ry     beta=0.70
     Davidson diagonalization with overlap
     ethr =  4.60E-04,  avg # of iterations =  6.0

     negative rho (up, down):  1.954E+00 0.000E+00

     total cpu time spent up to now is     1742.2 secs

     total energy              =   -7424.10917670 Ry
     Harris-Foulkes estimate   =   -7425.87781960 Ry
     estimated scf accuracy    <       7.41515680 Ry

     iteration #  4     ecut=    50.00 Ry     beta=0.70
     Davidson diagonalization with overlap
     ethr =  4.60E-04,  avg # of iterations =  5.0

     negative rho (up, down):  1.957E+00 0.000E+00

     total cpu time spent up to now is     1979.4 secs

     total energy              =   -7424.95836921 Ry
     Harris-Foulkes estimate   =   -7425.57646844 Ry
     estimated scf accuracy    <       2.66912660 Ry

     iteration #  5     ecut=    50.00 Ry     beta=0.70
     Davidson diagonalization with overlap
     ethr =  3.34E-04,  avg # of iterations =  6.7

     negative rho (up, down):  1.963E+00 0.000E+00

     total cpu time spent up to now is     2259.9 secs

     total energy              =   -7424.99905141 Ry
     Harris-Foulkes estimate   =   -7425.61563227 Ry
     estimated scf accuracy    <       5.02200542 Ry

     iteration #  6     ecut=    50.00 Ry     beta=0.70
     Davidson diagonalization with overlap
     ethr =  3.34E-04,  avg # of iterations =  3.7

     negative rho (up, down):  1.967E+00 0.000E+00

     total cpu time spent up to now is     2492.4 secs

     total energy              =   -7425.27046774 Ry
     Harris-Foulkes estimate   =   -7425.32685673 Ry
     estimated scf accuracy    <       0.21323454 Ry

     iteration #  7     ecut=    50.00 Ry     beta=0.70
     Davidson diagonalization with overlap
     ethr =  2.67E-05,  avg # of iterations =  6.3

     negative rho (up, down):  1.970E+00 0.000E+00

     total cpu time spent up to now is     2781.4 secs

     total energy              =   -7425.27327336 Ry
     Harris-Foulkes estimate   =   -7425.32054323 Ry
     estimated scf accuracy    <       0.24856820 Ry

     iteration #  8     ecut=    50.00 Ry     beta=0.70
     Davidson diagonalization with overlap
     ethr =  2.67E-05,  avg # of iterations =  3.0

     negative rho (up, down):  1.971E+00 0.000E+00

     total cpu time spent up to now is     3002.9 secs

     total energy              =   -7425.28229672 Ry
     Harris-Foulkes estimate   =   -7425.30132953 Ry
     estimated scf accuracy    <       0.08372905 Ry

     iteration #  9     ecut=    50.00 Ry     beta=0.70
     Davidson diagonalization with overlap
     ethr =  1.05E-05,  avg # of iterations =  8.5

     negative rho (up, down):  1.972E+00 0.000E+00

     total cpu time spent up to now is     3308.1 secs

     total energy              =   -7425.28233263 Ry
     Harris-Foulkes estimate   =   -7425.29326812 Ry
     estimated scf accuracy    <       0.03932602 Ry

     iteration # 10     ecut=    50.00 Ry     beta=0.70
     Davidson diagonalization with overlap
     ethr =  4.92E-06,  avg # of iterations =  5.0

     negative rho (up, down):  1.973E+00 0.000E+00

     total cpu time spent up to now is     3559.4 secs

     total energy              =   -7425.28316762 Ry
     Harris-Foulkes estimate   =   -7425.28679560 Ry
     estimated scf accuracy    <       0.01138443 Ry

     iteration # 11     ecut=    50.00 Ry     beta=0.70
     Davidson diagonalization with overlap
     ethr =  1.42E-06,  avg # of iterations =  8.5

     negative rho (up, down):  1.974E+00 0.000E+00

     total cpu time spent up to now is     3847.6 secs

     total energy              =   -7425.28334085 Ry
     Harris-Foulkes estimate   =   -7425.28477242 Ry
     estimated scf accuracy    <       0.00491713 Ry

     iteration # 12     ecut=    50.00 Ry     beta=0.70
     Davidson diagonalization with overlap
     ethr =  6.15E-07,  avg # of iterations =  3.0

     negative rho (up, down):  1.974E+00 0.000E+00

     total cpu time spent up to now is     4097.6 secs

     total energy              =   -7425.28275991 Ry
     Harris-Foulkes estimate   =   -7425.28384650 Ry
     estimated scf accuracy    <       0.00167090 Ry

     iteration # 13     ecut=    50.00 Ry     beta=0.70
     Davidson diagonalization with overlap
     ethr =  2.09E-07,  avg # of iterations =  5.3

     negative rho (up, down):  1.974E+00 0.000E+00

     total cpu time spent up to now is     4450.2 secs

     total energy              =   -7425.28198998 Ry
     Harris-Foulkes estimate   =   -7425.28470220 Ry
     estimated scf accuracy    <       0.01375272 Ry

     iteration # 14     ecut=    50.00 Ry     beta=0.70
     Davidson diagonalization with overlap
     ethr =  2.09E-07,  avg # of iterations =  3.0

     negative rho (up, down):  1.974E+00 0.000E+00

     total cpu time spent up to now is     4729.5 secs

     total energy              =   -7425.28318321 Ry
     Harris-Foulkes estimate   =   -7425.28346510 Ry
     estimated scf accuracy    <       0.00112370 Ry

     iteration # 15     ecut=    50.00 Ry     beta=0.70
     Davidson diagonalization with overlap
     ethr =  1.40E-07,  avg # of iterations =  2.0

     negative rho (up, down):  1.974E+00 0.000E+00

     total cpu time spent up to now is     4924.3 secs

     total energy              =   -7425.28316709 Ry
     Harris-Foulkes estimate   =   -7425.28347817 Ry
     estimated scf accuracy    <       0.00193317 Ry

     iteration # 16     ecut=    50.00 Ry     beta=0.70
     Davidson diagonalization with overlap
     ethr =  1.40E-07,  avg # of iterations =  2.0

     negative rho (up, down):  1.974E+00 0.000E+00

     total cpu time spent up to now is     5140.8 secs

     total energy              =   -7425.28328329 Ry
     Harris-Foulkes estimate   =   -7425.28342287 Ry
     estimated scf accuracy    <       0.00102594 Ry

     iteration # 17     ecut=    50.00 Ry     beta=0.70
     Davidson diagonalization with overlap
     ethr =  1.28E-07,  avg # of iterations =  1.0

     negative rho (up, down):  1.974E+00 0.000E+00

     total cpu time spent up to now is     5324.0 secs

     total energy              =   -7425.28332723 Ry
     Harris-Foulkes estimate   =   -7425.28337808 Ry
     estimated scf accuracy    <       0.00021128 Ry

     iteration # 18     ecut=    50.00 Ry     beta=0.70
     Davidson diagonalization with overlap
     ethr =  2.64E-08,  avg # of iterations =  2.0

     negative rho (up, down):  1.974E+00 0.000E+00

     total cpu time spent up to now is     5539.4 secs

     total energy              =   -7425.28335017 Ry
     Harris-Foulkes estimate   =   -7425.28336082 Ry
     estimated scf accuracy    <       0.00004422 Ry

     iteration # 19     ecut=    50.00 Ry     beta=0.70
     Davidson diagonalization with overlap
     ethr =  5.53E-09,  avg # of iterations =  2.0

     negative rho (up, down):  1.974E+00 0.000E+00

     total cpu time spent up to now is     5758.6 secs

     total energy              =   -7425.28335388 Ry
     Harris-Foulkes estimate   =   -7425.28335861 Ry
     estimated scf accuracy    <       0.00001894 Ry

     iteration # 20     ecut=    50.00 Ry     beta=0.70
     Davidson diagonalization with overlap
     ethr =  2.37E-09,  avg # of iterations =  2.0

     negative rho (up, down):  1.974E+00 0.000E+00

     total cpu time spent up to now is     5958.1 secs

     total energy              =   -7425.28335568 Ry
     Harris-Foulkes estimate   =   -7425.28335753 Ry
     estimated scf accuracy    <       0.00000646 Ry

     iteration # 21     ecut=    50.00 Ry     beta=0.70
     Davidson diagonalization with overlap
     ethr =  8.07E-10,  avg # of iterations =  2.0

     negative rho (up, down):  1.974E+00 0.000E+00

     total cpu time spent up to now is     6169.3 secs

     total energy              =   -7425.28335658 Ry
     Harris-Foulkes estimate   =   -7425.28335682 Ry
     estimated scf accuracy    <       0.00000086 Ry

     iteration # 22     ecut=    50.00 Ry     beta=0.70
     Davidson diagonalization with overlap
     ethr =  1.07E-10,  avg # of iterations =  3.0

     negative rho (up, down):  1.974E+00 0.000E+00

     total cpu time spent up to now is     6402.0 secs

     total energy              =   -7425.28335677 Ry
     Harris-Foulkes estimate   =   -7425.28335686 Ry
     estimated scf accuracy    <       0.00000046 Ry

     iteration # 23     ecut=    50.00 Ry     beta=0.70
     Davidson diagonalization with overlap
     ethr =  5.70E-11,  avg # of iterations =  2.0

     negative rho (up, down):  1.974E+00 0.000E+00

     total cpu time spent up to now is     6630.6 secs

     total energy              =   -7425.28335681 Ry
     Harris-Foulkes estimate   =   -7425.28335687 Ry
     estimated scf accuracy    <       0.00000019 Ry

     iteration # 24     ecut=    50.00 Ry     beta=0.70
     Davidson diagonalization with overlap
     ethr =  2.41E-11,  avg # of iterations =  2.0

     negative rho (up, down):  1.974E+00 0.000E+00

     total cpu time spent up to now is     6848.1 secs

     total energy              =   -7425.28335685 Ry
     Harris-Foulkes estimate   =   -7425.28335688 Ry
     estimated scf accuracy    <       0.00000023 Ry

     iteration # 25     ecut=    50.00 Ry     beta=0.70
     Davidson diagonalization with overlap
     ethr =  2.41E-11,  avg # of iterations =  2.0

     negative rho (up, down):  1.974E+00 0.000E+00

     total cpu time spent up to now is     7063.2 secs

     total energy              =   -7425.28335688 Ry
     Harris-Foulkes estimate   =   -7425.28335688 Ry
     estimated scf accuracy    <       0.00000004 Ry

     iteration # 26     ecut=    50.00 Ry     beta=0.70
     Davidson diagonalization with overlap
     ethr =  4.65E-12,  avg # of iterations =  2.0

     negative rho (up, down):  1.974E+00 0.000E+00

     total cpu time spent up to now is     7282.5 secs

     total energy              =   -7425.28335687 Ry
     Harris-Foulkes estimate   =   -7425.28335690 Ry
     estimated scf accuracy    <       0.00000027 Ry

     iteration # 27     ecut=    50.00 Ry     beta=0.70
     Davidson diagonalization with overlap
     ethr =  4.65E-12,  avg # of iterations =  2.0

     negative rho (up, down):  1.974E+00 0.000E+00

     total cpu time spent up to now is     7508.4 secs

     total energy              =   -7425.28335689 Ry
     Harris-Foulkes estimate   =   -7425.28335689 Ry
     estimated scf accuracy    <       0.00000002 Ry

     iteration # 28     ecut=    50.00 Ry     beta=0.70
     Davidson diagonalization with overlap
     ethr =  2.91E-12,  avg # of iterations =  2.0

     negative rho (up, down):  1.974E+00 0.000E+00

     total cpu time spent up to now is     7717.6 secs

     total energy              =   -7425.28335689 Ry
     Harris-Foulkes estimate   =   -7425.28335690 Ry
     estimated scf accuracy    <       0.00000004 Ry

     iteration # 29     ecut=    50.00 Ry     beta=0.70
     Davidson diagonalization with overlap
     ethr =  2.91E-12,  avg # of iterations =  2.0

     negative rho (up, down):  1.974E+00 0.000E+00

     total cpu time spent up to now is     7917.4 secs

     End of self-consistent calculation

          k = 0.2500 0.2500 0.0833 (167653 PWs)   bands (ev):

   -19.1853  -7.2130  -6.8674  -6.3418  -6.3411  -5.9126  -5.5030  -5.4115
    -5.4097  -5.2154  -5.2142  -5.0976  -5.0953  -5.0186  -4.9952  -4.9225
    -4.8382  -4.8337  -4.7952  -4.7944  -4.6347  -4.6183  -4.6172  -4.6151
    -4.6086  -4.5536  -4.5533  -4.5425  -4.5404  -4.5044  -4.4934  -4.4904
    -4.4503  -4.4492  -4.4165  -4.4151  -4.3653  -4.3615  -4.3527  -4.3513
    -4.3453  -4.3328  -4.3321  -4.2921  -4.2742  -4.2727  -4.2661  -4.2652
    -4.2339  -4.1851  -4.1704  -4.1680  -4.1676  -4.1634  -4.1573  -4.1522
    -4.1514  -4.1501  -4.0885  -4.0842  -4.0394  -4.0346  -4.0236  -3.9986
    -3.9972  -3.9803  -3.9745  -3.9736  -3.9704  -3.9673  -3.9189  -3.9183
    -3.9065  -3.9041  -3.8028  -3.7986  -3.7980  -3.7920  -3.7566  -3.7506
    -3.7327  -3.7055  -3.7039  -3.6761  -3.6728  -3.6572  -3.6521  -3.6416
    -3.6374  -3.5864  -3.5831  -3.5712  -3.5507  -3.5411  -3.5398  -3.5360
    -3.5354  -3.5122  -3.5080  -3.4782  -3.4724  -3.4524  -3.4499  -3.4198
    -3.4162  -3.3992  -3.3827  -3.3700  -3.3637  -3.3341  -3.3320  -3.2957
    -3.2890  -3.2872  -3.2746  -3.2736  -3.2692  -3.2635  -3.2333  -3.2200
    -3.1814  -3.1790  -3.1716  -3.1622  -3.1607  -3.1560  -3.1369  -3.1362
    -3.1157  -3.1149  -3.1130  -3.0881  -3.0878  -3.0803  -3.0778  -3.0749
    -3.0407  -3.0377  -3.0034  -3.0005  -3.0000  -2.9983  -2.9967  -2.9179
    -2.9085  -2.9075  -2.9044  -2.9024  -2.9013  -2.8979  -2.8969  -2.8959
    -2.8957  -2.8868  -2.8789  -2.8632  -2.8603  -2.8576  -2.8557  -2.8442
    -2.8406  -2.8026  -2.8008  -2.8002  -2.7963  -2.7946  -2.7786  -2.7767
    -2.7699  -2.7687  -2.7659  -2.7091  -2.7073  -2.7030  -2.7015  -2.6977
    -2.6943  -2.6683  -2.6101  -2.6093  -2.6080  -2.6052  -2.5950  -2.5927
    -2.5867  -2.5786  -2.5764  -2.5440  -2.5382  -2.5345  -2.5325  -2.5291
    -2.5283  -2.4921  -2.4906  -2.4821  -2.4804  -2.4789  -2.4769  -2.4358
    -2.4192  -2.4164  -2.3641  -2.3606  -2.3464  -2.3441  -2.3357  -2.3342
    -2.2905  -2.2851  -2.2641  -2.2518  -2.2370  -2.2334  -2.2304  -2.2116
    -2.2093  -2.2007  -2.1833  -2.1514  -2.1431  -2.1319  -2.1269  -2.1260
    -2.1203  -2.1166  -2.1111  -2.1017  -2.0994  -2.0971  -2.0931  -2.0904
    -2.0890  -2.0821  -2.0781  -2.0625  -2.0603  -2.0589  -2.0539  -2.0511
    -2.0483  -2.0288  -2.0246  -2.0146  -2.0130  -2.0072  -2.0061  -1.9694
    -1.9374  -1.9349  -1.9002  -1.8862  -1.8842  -1.8768  -1.8697  -1.8510
    -1.8483  -1.8378  -1.8329  -1.8325  -1.8302  -1.8300  -1.8261  -1.7965
    -1.7952  -1.7942  -1.7514  -1.7494  -1.7131  -1.7072  -1.6635  -1.6623
    -1.6499  -1.6283  -1.6238  -1.6192  -1.6097  -1.6038  -1.5887  -1.5857
    -1.5818  -1.5802  -1.5773  -1.5766  -1.5747  -1.5734  -1.5559  -1.5524
    -1.5417  -1.5263  -1.5098  -1.5086  -1.4867  -1.4805  -1.4779  -1.4757
    -1.4744  -1.4694  -1.4534  -1.4475  -1.4355  -1.4326  -1.4216  -1.4119
    -1.4004  -1.3957  -1.3698  -1.3664  -1.3602  -1.3570  -1.3278  -1.3220
    -1.3158  -1.3125  -1.3084  -1.3056  -1.2855  -1.2826  -1.2747  -1.2702
    -1.2645  -1.2572  -1.2535  -1.2500  -1.2488  -1.2381  -1.2317  -1.2256
    -1.2180  -1.2172  -1.2110  -1.2031  -1.2019  -1.1940  -1.1712  -1.1548
    -1.1497  -1.1474  -1.1458  -1.1437  -1.1329  -1.1061  -1.0890  -1.0873
    -1.0867  -1.0853  -1.0815  -1.0777  -1.0678  -1.0637  -1.0602  -1.0277
    -1.0250  -1.0189  -1.0180  -0.9968  -0.9954  -0.9859  -0.9576  -0.9485
    -0.9238  -0.9198  -0.8942  -0.8935  -0.8900  -0.8898  -0.8873  -0.8827
    -0.8792  -0.8789  -0.8753  -0.8731  -0.8432  -0.8413  -0.8229  -0.8206
    -0.8197  -0.8170  -0.8155  -0.8125  -0.7980  -0.5249  -0.5107  -0.4530
    -0.4505  -0.4167  -0.2551  -0.1919  -0.1893  -0.1551   0.1289   0.1305
     0.4590   0.4628   0.5570   0.5583   0.5977   0.6010   0.7420   0.7472
     0.8655   0.8690   0.9628   1.5545   1.5713   1.5729   1.6116   1.6174
     1.6641   1.6712   1.7393   1.7454   1.9471   1.9509   2.1881   2.2603
     2.2687   2.2807   2.6599   2.6685   2.7336   2.7351   2.7409   2.7441
     2.8930   2.8944   2.9549   3.0344   3.0437   3.2663   3.2701   3.4021
     3.4263   3.4341   3.6982   3.7064   3.8140   3.8338   3.8357   3.9118
     3.9330   4.0180   4.0242   4.2540   4.2596   4.3481   4.3534   4.4653
     4.4724   4.4916   4.5034   4.6658   5.1677   5.3181   5.3313   5.3994
     5.4063   5.5311   5.5766   5.5863   5.6519   5.6961   5.7028   5.7109
     5.7485   5.7511   5.7538   5.8003   6.0155   6.0577   6.0772   6.0893
     6.0914   6.0982   6.1016   6.1043   6.1045   6.1529   6.1780   6.2040

          k = 0.2500 0.2500-0.2500 (167588 PWs)   bands (ev):

   -19.1853  -7.2130  -6.8674  -6.3418  -6.3411  -5.9126  -5.5030  -5.4115
    -5.4097  -5.2154  -5.2142  -5.0976  -5.0953  -5.0186  -4.9952  -4.9225
    -4.8382  -4.8337  -4.7952  -4.7944  -4.6347  -4.6183  -4.6172  -4.6151
    -4.6086  -4.5536  -4.5533  -4.5425  -4.5404  -4.5044  -4.4934  -4.4904
    -4.4503  -4.4492  -4.4165  -4.4151  -4.3653  -4.3615  -4.3527  -4.3513
    -4.3453  -4.3328  -4.3321  -4.2921  -4.2742  -4.2727  -4.2661  -4.2652
    -4.2339  -4.1851  -4.1704  -4.1680  -4.1676  -4.1634  -4.1573  -4.1522
    -4.1514  -4.1501  -4.0885  -4.0842  -4.0394  -4.0346  -4.0236  -3.9986
    -3.9972  -3.9803  -3.9744  -3.9736  -3.9704  -3.9673  -3.9189  -3.9183
    -3.9064  -3.9041  -3.8028  -3.7986  -3.7980  -3.7920  -3.7566  -3.7506
    -3.7327  -3.7055  -3.7039  -3.6761  -3.6728  -3.6572  -3.6521  -3.6416
    -3.6374  -3.5864  -3.5831  -3.5712  -3.5507  -3.5411  -3.5398  -3.5360
    -3.5354  -3.5122  -3.5080  -3.4782  -3.4724  -3.4524  -3.4499  -3.4198
    -3.4162  -3.3992  -3.3827  -3.3700  -3.3637  -3.3341  -3.3320  -3.2957
    -3.2890  -3.2872  -3.2746  -3.2736  -3.2692  -3.2635  -3.2333  -3.2200
    -3.1814  -3.1790  -3.1716  -3.1622  -3.1607  -3.1560  -3.1369  -3.1362
    -3.1157  -3.1149  -3.1130  -3.0881  -3.0878  -3.0803  -3.0778  -3.0749
    -3.0407  -3.0377  -3.0034  -3.0005  -3.0000  -2.9983  -2.9967  -2.9179
    -2.9085  -2.9075  -2.9044  -2.9024  -2.9013  -2.8979  -2.8969  -2.8959
    -2.8957  -2.8868  -2.8789  -2.8632  -2.8603  -2.8576  -2.8557  -2.8442
    -2.8406  -2.8026  -2.8008  -2.8002  -2.7963  -2.7946  -2.7786  -2.7767
    -2.7699  -2.7687  -2.7659  -2.7091  -2.7073  -2.7030  -2.7015  -2.6977
    -2.6943  -2.6683  -2.6101  -2.6093  -2.6080  -2.6052  -2.5950  -2.5927
    -2.5867  -2.5786  -2.5764  -2.5440  -2.5382  -2.5345  -2.5325  -2.5291
    -2.5283  -2.4921  -2.4906  -2.4821  -2.4804  -2.4789  -2.4769  -2.4358
    -2.4192  -2.4164  -2.3641  -2.3606  -2.3464  -2.3441  -2.3357  -2.3342
    -2.2905  -2.2851  -2.2641  -2.2518  -2.2370  -2.2334  -2.2304  -2.2116
    -2.2093  -2.2007  -2.1833  -2.1514  -2.1431  -2.1318  -2.1269  -2.1260
    -2.1203  -2.1166  -2.1111  -2.1017  -2.0994  -2.0971  -2.0931  -2.0904
    -2.0890  -2.0821  -2.0781  -2.0625  -2.0603  -2.0589  -2.0539  -2.0511
    -2.0483  -2.0288  -2.0246  -2.0146  -2.0130  -2.0071  -2.0061  -1.9694
    -1.9374  -1.9349  -1.9002  -1.8862  -1.8842  -1.8768  -1.8697  -1.8510
    -1.8483  -1.8378  -1.8329  -1.8325  -1.8302  -1.8300  -1.8261  -1.7965
    -1.7952  -1.7942  -1.7514  -1.7494  -1.7131  -1.7072  -1.6635  -1.6623
    -1.6499  -1.6283  -1.6238  -1.6192  -1.6097  -1.6038  -1.5888  -1.5857
    -1.5818  -1.5802  -1.5773  -1.5766  -1.5747  -1.5734  -1.5559  -1.5524
    -1.5417  -1.5264  -1.5098  -1.5086  -1.4867  -1.4805  -1.4779  -1.4757
    -1.4744  -1.4694  -1.4534  -1.4474  -1.4355  -1.4326  -1.4216  -1.4119
    -1.4004  -1.3957  -1.3698  -1.3664  -1.3602  -1.3570  -1.3277  -1.3220
    -1.3158  -1.3125  -1.3084  -1.3056  -1.2855  -1.2826  -1.2747  -1.2702
    -1.2645  -1.2572  -1.2535  -1.2500  -1.2488  -1.2381  -1.2317  -1.2256
    -1.2180  -1.2172  -1.2110  -1.2031  -1.2019  -1.1940  -1.1712  -1.1548
    -1.1497  -1.1474  -1.1457  -1.1437  -1.1329  -1.1061  -1.0890  -1.0873
    -1.0867  -1.0853  -1.0815  -1.0777  -1.0678  -1.0637  -1.0602  -1.0277
    -1.0250  -1.0189  -1.0180  -0.9968  -0.9954  -0.9859  -0.9576  -0.9485
    -0.9238  -0.9198  -0.8942  -0.8935  -0.8900  -0.8898  -0.8873  -0.8827
    -0.8792  -0.8788  -0.8753  -0.8731  -0.8432  -0.8413  -0.8229  -0.8206
    -0.8197  -0.8170  -0.8155  -0.8125  -0.7980  -0.5249  -0.5107  -0.4530
    -0.4505  -0.4167  -0.2551  -0.1919  -0.1893  -0.1551   0.1289   0.1305
     0.4590   0.4628   0.5570   0.5583   0.5977   0.6010   0.7420   0.7472
     0.8655   0.8690   0.9628   1.5545   1.5713   1.5729   1.6116   1.6174
     1.6641   1.6712   1.7393   1.7454   1.9471   1.9509   2.1881   2.2602
     2.2687   2.2807   2.6599   2.6685   2.7336   2.7351   2.7409   2.7441
     2.8930   2.8944   2.9549   3.0344   3.0437   3.2663   3.2701   3.4021
     3.4263   3.4342   3.6982   3.7064   3.8140   3.8338   3.8357   3.9119
     3.9331   4.0180   4.0242   4.2540   4.2595   4.3481   4.3534   4.4653
     4.4724   4.4916   4.5034   4.6659   5.1587   5.3168   5.3262   5.3993
     5.4058   5.5350   5.5768   5.5865   5.6584   5.6988   5.7024   5.7284
     5.7489   5.7536   5.7643   5.8004   6.0386   6.0593   6.0779   6.0872
     6.0942   6.0981   6.1035   6.1044   6.1096   6.1350   6.1884   6.2264

          k =-0.2500-0.2500 0.0833 (167653 PWs)   bands (ev):

   -19.1853  -7.2130  -6.8674  -6.3418  -6.3411  -5.9126  -5.5030  -5.4115
    -5.4097  -5.2154  -5.2142  -5.0976  -5.0953  -5.0186  -4.9952  -4.9225
    -4.8382  -4.8337  -4.7952  -4.7944  -4.6347  -4.6183  -4.6172  -4.6151
    -4.6086  -4.5536  -4.5533  -4.5425  -4.5404  -4.5044  -4.4934  -4.4904
    -4.4503  -4.4492  -4.4165  -4.4151  -4.3653  -4.3615  -4.3527  -4.3513
    -4.3453  -4.3328  -4.3321  -4.2921  -4.2742  -4.2727  -4.2661  -4.2652
    -4.2339  -4.1851  -4.1704  -4.1680  -4.1676  -4.1634  -4.1573  -4.1522
    -4.1514  -4.1501  -4.0885  -4.0842  -4.0394  -4.0346  -4.0236  -3.9986
    -3.9972  -3.9803  -3.9745  -3.9736  -3.9704  -3.9673  -3.9189  -3.9183
    -3.9065  -3.9041  -3.8028  -3.7986  -3.7980  -3.7920  -3.7566  -3.7506
    -3.7327  -3.7055  -3.7039  -3.6761  -3.6728  -3.6572  -3.6521  -3.6416
    -3.6374  -3.5864  -3.5831  -3.5712  -3.5507  -3.5411  -3.5398  -3.5360
    -3.5354  -3.5122  -3.5080  -3.4782  -3.4724  -3.4524  -3.4499  -3.4198
    -3.4162  -3.3992  -3.3827  -3.3700  -3.3637  -3.3341  -3.3320  -3.2957
    -3.2890  -3.2872  -3.2746  -3.2736  -3.2692  -3.2635  -3.2333  -3.2200
    -3.1814  -3.1790  -3.1716  -3.1622  -3.1607  -3.1560  -3.1369  -3.1362
    -3.1157  -3.1149  -3.1130  -3.0881  -3.0878  -3.0803  -3.0778  -3.0749
    -3.0407  -3.0377  -3.0034  -3.0005  -3.0000  -2.9983  -2.9967  -2.9179
    -2.9085  -2.9075  -2.9044  -2.9024  -2.9013  -2.8979  -2.8969  -2.8959
    -2.8957  -2.8868  -2.8789  -2.8632  -2.8603  -2.8576  -2.8557  -2.8442
    -2.8406  -2.8026  -2.8008  -2.8002  -2.7963  -2.7946  -2.7786  -2.7767
    -2.7699  -2.7687  -2.7659  -2.7091  -2.7073  -2.7030  -2.7015  -2.6977
    -2.6943  -2.6683  -2.6101  -2.6093  -2.6080  -2.6052  -2.5950  -2.5927
    -2.5867  -2.5786  -2.5764  -2.5440  -2.5382  -2.5345  -2.5325  -2.5291
    -2.5283  -2.4921  -2.4906  -2.4821  -2.4804  -2.4789  -2.4769  -2.4358
    -2.4192  -2.4164  -2.3641  -2.3606  -2.3464  -2.3441  -2.3357  -2.3342
    -2.2905  -2.2851  -2.2641  -2.2518  -2.2370  -2.2334  -2.2304  -2.2116
    -2.2093  -2.2007  -2.1833  -2.1514  -2.1431  -2.1319  -2.1269  -2.1260
    -2.1203  -2.1166  -2.1111  -2.1017  -2.0994  -2.0971  -2.0931  -2.0904
    -2.0890  -2.0821  -2.0781  -2.0625  -2.0603  -2.0589  -2.0539  -2.0511
    -2.0483  -2.0288  -2.0246  -2.0146  -2.0130  -2.0072  -2.0061  -1.9694
    -1.9374  -1.9349  -1.9002  -1.8862  -1.8842  -1.8768  -1.8697  -1.8510
    -1.8483  -1.8378  -1.8329  -1.8325  -1.8302  -1.8300  -1.8261  -1.7965
    -1.7952  -1.7942  -1.7514  -1.7494  -1.7131  -1.7072  -1.6635  -1.6623
    -1.6499  -1.6283  -1.6238  -1.6192  -1.6097  -1.6038  -1.5887  -1.5857
    -1.5818  -1.5802  -1.5773  -1.5766  -1.5747  -1.5734  -1.5559  -1.5524
    -1.5417  -1.5263  -1.5098  -1.5086  -1.4867  -1.4805  -1.4779  -1.4757
    -1.4744  -1.4694  -1.4534  -1.4475  -1.4355  -1.4326  -1.4216  -1.4119
    -1.4004  -1.3957  -1.3698  -1.3664  -1.3602  -1.3570  -1.3278  -1.3220
    -1.3158  -1.3125  -1.3084  -1.3056  -1.2855  -1.2826  -1.2747  -1.2702
    -1.2645  -1.2572  -1.2535  -1.2500  -1.2488  -1.2381  -1.2317  -1.2256
    -1.2180  -1.2172  -1.2110  -1.2031  -1.2019  -1.1940  -1.1712  -1.1548
    -1.1497  -1.1474  -1.1458  -1.1437  -1.1329  -1.1061  -1.0890  -1.0873
    -1.0867  -1.0853  -1.0815  -1.0777  -1.0678  -1.0637  -1.0602  -1.0277
    -1.0250  -1.0189  -1.0180  -0.9968  -0.9954  -0.9859  -0.9576  -0.9485
    -0.9238  -0.9198  -0.8942  -0.8935  -0.8900  -0.8898  -0.8873  -0.8827
    -0.8792  -0.8789  -0.8753  -0.8731  -0.8432  -0.8413  -0.8229  -0.8206
    -0.8197  -0.8170  -0.8155  -0.8125  -0.7980  -0.5249  -0.5107  -0.4530
    -0.4505  -0.4167  -0.2551  -0.1919  -0.1893  -0.1551   0.1289   0.1305
     0.4590   0.4628   0.5570   0.5583   0.5977   0.6010   0.7420   0.7472
     0.8655   0.8690   0.9628   1.5545   1.5713   1.5729   1.6116   1.6174
     1.6641   1.6712   1.7393   1.7454   1.9471   1.9509   2.1881   2.2603
     2.2687   2.2807   2.6599   2.6685   2.7336   2.7351   2.7409   2.7441
     2.8930   2.8944   2.9549   3.0344   3.0437   3.2663   3.2701   3.4021
     3.4263   3.4341   3.6982   3.7064   3.8140   3.8338   3.8357   3.9118
     3.9330   4.0180   4.0242   4.2540   4.2596   4.3481   4.3534   4.4653
     4.4724   4.4916   4.5034   4.6658   5.1673   5.3179   5.3325   5.3994
     5.4063   5.5282   5.5765   5.5863   5.6528   5.6968   5.7028   5.7128
     5.7487   5.7518   5.7538   5.8005   6.0170   6.0579   6.0773   6.0885
     6.0927   6.0983   6.1004   6.1042   6.1045   6.1533   6.1727   6.1993

          k =-0.2500 0.2500-0.0833 (167653 PWs)   bands (ev):

   -19.1853  -7.2130  -6.8674  -6.3419  -6.3410  -5.9126  -5.5030  -5.4115
    -5.4097  -5.2154  -5.2142  -5.0977  -5.0953  -5.0186  -4.9952  -4.9225
    -4.8382  -4.8337  -4.7952  -4.7944  -4.6347  -4.6182  -4.6172  -4.6151
    -4.6086  -4.5536  -4.5533  -4.5424  -4.5405  -4.5044  -4.4934  -4.4904
    -4.4503  -4.4492  -4.4165  -4.4151  -4.3652  -4.3616  -4.3527  -4.3513
    -4.3453  -4.3328  -4.3321  -4.2921  -4.2741  -4.2727  -4.2661  -4.2653
    -4.2339  -4.1850  -4.1704  -4.1680  -4.1675  -4.1635  -4.1574  -4.1522
    -4.1514  -4.1501  -4.0885  -4.0842  -4.0394  -4.0346  -4.0235  -3.9986
    -3.9972  -3.9803  -3.9742  -3.9738  -3.9705  -3.9673  -3.9190  -3.9183
    -3.9064  -3.9042  -3.8025  -3.7986  -3.7980  -3.7921  -3.7566  -3.7506
    -3.7327  -3.7057  -3.7038  -3.6761  -3.6728  -3.6571  -3.6521  -3.6415
    -3.6374  -3.5864  -3.5831  -3.5720  -3.5506  -3.5411  -3.5399  -3.5358
    -3.5355  -3.5121  -3.5080  -3.4784  -3.4723  -3.4525  -3.4495  -3.4202
    -3.4158  -3.3992  -3.3842  -3.3699  -3.3616  -3.3341  -3.3320  -3.2960
    -3.2890  -3.2869  -3.2747  -3.2739  -3.2692  -3.2640  -3.2333  -3.2201
    -3.1814  -3.1790  -3.1716  -3.1617  -3.1612  -3.1560  -3.1369  -3.1362
    -3.1156  -3.1150  -3.1130  -3.0880  -3.0876  -3.0803  -3.0777  -3.0749
    -3.0407  -3.0377  -3.0034  -3.0005  -3.0001  -2.9983  -2.9967  -2.9179
    -2.9085  -2.9075  -2.9044  -2.9024  -2.9013  -2.8979  -2.8968  -2.8959
    -2.8957  -2.8868  -2.8789  -2.8634  -2.8602  -2.8576  -2.8557  -2.8442
    -2.8403  -2.8025  -2.8008  -2.8003  -2.7965  -2.7946  -2.7786  -2.7768
    -2.7698  -2.7688  -2.7659  -2.7093  -2.7072  -2.7029  -2.7015  -2.6975
    -2.6942  -2.6684  -2.6098  -2.6094  -2.6080  -2.6052  -2.5949  -2.5925
    -2.5867  -2.5787  -2.5763  -2.5441  -2.5382  -2.5344  -2.5323  -2.5293
    -2.5283  -2.4921  -2.4905  -2.4820  -2.4806  -2.4789  -2.4769  -2.4360
    -2.4192  -2.4170  -2.3642  -2.3606  -2.3466  -2.3439  -2.3357  -2.3343
    -2.2908  -2.2851  -2.2641  -2.2521  -2.2368  -2.2334  -2.2304  -2.2116
    -2.2092  -2.2007  -2.1833  -2.1515  -2.1429  -2.1321  -2.1270  -2.1260
    -2.1200  -2.1166  -2.1113  -2.1015  -2.0994  -2.0971  -2.0932  -2.0904
    -2.0890  -2.0820  -2.0782  -2.0627  -2.0602  -2.0589  -2.0537  -2.0511
    -2.0483  -2.0288  -2.0247  -2.0146  -2.0129  -2.0071  -2.0060  -1.9694
    -1.9374  -1.9349  -1.9002  -1.8858  -1.8840  -1.8762  -1.8699  -1.8514
    -1.8483  -1.8372  -1.8329  -1.8321  -1.8302  -1.8300  -1.8261  -1.7965
    -1.7952  -1.7942  -1.7515  -1.7493  -1.7129  -1.7073  -1.6638  -1.6624
    -1.6500  -1.6282  -1.6239  -1.6192  -1.6102  -1.6032  -1.5893  -1.5858
    -1.5818  -1.5798  -1.5773  -1.5765  -1.5747  -1.5733  -1.5557  -1.5524
    -1.5417  -1.5263  -1.5098  -1.5082  -1.4875  -1.4803  -1.4780  -1.4757
    -1.4749  -1.4694  -1.4526  -1.4475  -1.4360  -1.4326  -1.4217  -1.4119
    -1.4006  -1.3956  -1.3696  -1.3666  -1.3600  -1.3572  -1.3281  -1.3213
    -1.3159  -1.3125  -1.3081  -1.3057  -1.2856  -1.2824  -1.2745  -1.2710
    -1.2641  -1.2573  -1.2537  -1.2499  -1.2488  -1.2378  -1.2315  -1.2253
    -1.2180  -1.2170  -1.2113  -1.2023  -1.2017  -1.1940  -1.1704  -1.1547
    -1.1497  -1.1472  -1.1456  -1.1437  -1.1334  -1.1062  -1.0887  -1.0873
    -1.0867  -1.0853  -1.0818  -1.0776  -1.0690  -1.0638  -1.0612  -1.0275
    -1.0250  -1.0189  -1.0179  -0.9968  -0.9955  -0.9859  -0.9577  -0.9485
    -0.9238  -0.9198  -0.8941  -0.8935  -0.8899  -0.8898  -0.8873  -0.8827
    -0.8790  -0.8788  -0.8753  -0.8731  -0.8431  -0.8414  -0.8231  -0.8204
    -0.8194  -0.8170  -0.8155  -0.8130  -0.7980  -0.5249  -0.5107  -0.4533
    -0.4504  -0.4166  -0.2548  -0.1918  -0.1894  -0.1550   0.1290   0.1303
     0.4590   0.4629   0.5571   0.5582   0.5979   0.6011   0.7422   0.7468
     0.8655   0.8689   0.9628   1.5545   1.5713   1.5729   1.6112   1.6174
     1.6636   1.6718   1.7394   1.7453   1.9472   1.9508   2.1880   2.2602
     2.2687   2.2807   2.6597   2.6688   2.7336   2.7351   2.7410   2.7440
     2.8931   2.8944   2.9548   3.0349   3.0436   3.2666   3.2701   3.4021
     3.4263   3.4340   3.6985   3.7062   3.8135   3.8338   3.8357   3.9106
     3.9347   4.0182   4.0242   4.2541   4.2595   4.3482   4.3534   4.4651
     4.4723   4.4910   4.5035   4.6653   5.1669   5.3194   5.3312   5.3995
     5.4067   5.5276   5.5767   5.5862   5.6521   5.6968   5.7028   5.7112
     5.7497   5.7533   5.7546   5.8006   6.0194   6.0574   6.0769   6.0891
     6.0931   6.0978   6.1002   6.1040   6.1045   6.1552   6.1692   6.2017

          k = 0.2500-0.2500-0.0833 (167653 PWs)   bands (ev):

   -19.1853  -7.2130  -6.8674  -6.3419  -6.3410  -5.9126  -5.5030  -5.4115
    -5.4097  -5.2154  -5.2142  -5.0977  -5.0953  -5.0186  -4.9952  -4.9225
    -4.8382  -4.8337  -4.7952  -4.7944  -4.6347  -4.6182  -4.6172  -4.6151
    -4.6086  -4.5536  -4.5533  -4.5424  -4.5405  -4.5044  -4.4934  -4.4904
    -4.4503  -4.4492  -4.4165  -4.4151  -4.3652  -4.3616  -4.3527  -4.3513
    -4.3453  -4.3328  -4.3321  -4.2921  -4.2741  -4.2727  -4.2661  -4.2653
    -4.2339  -4.1850  -4.1704  -4.1680  -4.1675  -4.1635  -4.1574  -4.1522
    -4.1514  -4.1501  -4.0885  -4.0842  -4.0394  -4.0346  -4.0235  -3.9986
    -3.9972  -3.9803  -3.9742  -3.9738  -3.9705  -3.9673  -3.9190  -3.9183
    -3.9064  -3.9042  -3.8025  -3.7986  -3.7980  -3.7921  -3.7566  -3.7506
    -3.7327  -3.7057  -3.7038  -3.6761  -3.6728  -3.6571  -3.6521  -3.6415
    -3.6374  -3.5864  -3.5831  -3.5720  -3.5506  -3.5411  -3.5399  -3.5358
    -3.5355  -3.5121  -3.5080  -3.4784  -3.4723  -3.4525  -3.4495  -3.4202
    -3.4158  -3.3992  -3.3842  -3.3699  -3.3616  -3.3341  -3.3320  -3.2960
    -3.2890  -3.2869  -3.2747  -3.2739  -3.2692  -3.2640  -3.2333  -3.2201
    -3.1814  -3.1790  -3.1716  -3.1617  -3.1612  -3.1560  -3.1369  -3.1362
    -3.1156  -3.1150  -3.1130  -3.0880  -3.0876  -3.0803  -3.0777  -3.0749
    -3.0407  -3.0377  -3.0034  -3.0005  -3.0001  -2.9983  -2.9967  -2.9179
    -2.9085  -2.9075  -2.9044  -2.9024  -2.9013  -2.8979  -2.8968  -2.8959
    -2.8957  -2.8868  -2.8789  -2.8634  -2.8602  -2.8576  -2.8557  -2.8442
    -2.8403  -2.8025  -2.8008  -2.8003  -2.7965  -2.7946  -2.7786  -2.7768
    -2.7698  -2.7688  -2.7659  -2.7093  -2.7072  -2.7029  -2.7015  -2.6975
    -2.6942  -2.6684  -2.6098  -2.6094  -2.6080  -2.6052  -2.5949  -2.5925
    -2.5867  -2.5787  -2.5763  -2.5441  -2.5382  -2.5344  -2.5323  -2.5293
    -2.5283  -2.4921  -2.4905  -2.4820  -2.4806  -2.4789  -2.4769  -2.4360
    -2.4192  -2.4170  -2.3642  -2.3606  -2.3466  -2.3439  -2.3357  -2.3343
    -2.2908  -2.2851  -2.2641  -2.2521  -2.2368  -2.2334  -2.2304  -2.2116
    -2.2092  -2.2007  -2.1833  -2.1515  -2.1429  -2.1321  -2.1270  -2.1260
    -2.1200  -2.1166  -2.1113  -2.1015  -2.0994  -2.0971  -2.0932  -2.0904
    -2.0890  -2.0820  -2.0782  -2.0627  -2.0602  -2.0589  -2.0537  -2.0511
    -2.0483  -2.0288  -2.0247  -2.0146  -2.0129  -2.0071  -2.0060  -1.9694
    -1.9374  -1.9349  -1.9002  -1.8858  -1.8840  -1.8762  -1.8699  -1.8514
    -1.8483  -1.8372  -1.8329  -1.8321  -1.8302  -1.8300  -1.8261  -1.7965
    -1.7952  -1.7942  -1.7515  -1.7493  -1.7129  -1.7073  -1.6638  -1.6624
    -1.6500  -1.6282  -1.6239  -1.6192  -1.6102  -1.6032  -1.5893  -1.5858
    -1.5818  -1.5798  -1.5773  -1.5765  -1.5747  -1.5733  -1.5557  -1.5524
    -1.5417  -1.5263  -1.5098  -1.5082  -1.4875  -1.4803  -1.4780  -1.4757
    -1.4749  -1.4694  -1.4526  -1.4475  -1.4360  -1.4326  -1.4217  -1.4119
    -1.4006  -1.3956  -1.3696  -1.3666  -1.3600  -1.3572  -1.3281  -1.3213
    -1.3159  -1.3125  -1.3081  -1.3057  -1.2856  -1.2824  -1.2745  -1.2710
    -1.2641  -1.2573  -1.2537  -1.2499  -1.2488  -1.2378  -1.2315  -1.2253
    -1.2180  -1.2170  -1.2113  -1.2023  -1.2017  -1.1940  -1.1704  -1.1547
    -1.1497  -1.1472  -1.1456  -1.1437  -1.1334  -1.1062  -1.0887  -1.0873
    -1.0867  -1.0853  -1.0818  -1.0776  -1.0690  -1.0638  -1.0612  -1.0275
    -1.0250  -1.0189  -1.0179  -0.9968  -0.9955  -0.9859  -0.9577  -0.9485
    -0.9238  -0.9198  -0.8941  -0.8935  -0.8899  -0.8898  -0.8873  -0.8827
    -0.8790  -0.8788  -0.8753  -0.8731  -0.8431  -0.8414  -0.8231  -0.8204
    -0.8194  -0.8170  -0.8155  -0.8130  -0.7980  -0.5249  -0.5107  -0.4533
    -0.4504  -0.4166  -0.2548  -0.1918  -0.1894  -0.1550   0.1290   0.1303
     0.4590   0.4629   0.5571   0.5582   0.5979   0.6011   0.7422   0.7468
     0.8655   0.8689   0.9628   1.5545   1.5713   1.5729   1.6112   1.6174
     1.6636   1.6718   1.7394   1.7453   1.9472   1.9508   2.1880   2.2602
     2.2687   2.2807   2.6597   2.6688   2.7336   2.7351   2.7410   2.7440
     2.8931   2.8944   2.9548   3.0349   3.0436   3.2666   3.2701   3.4021
     3.4263   3.4340   3.6985   3.7062   3.8135   3.8338   3.8357   3.9106
     3.9347   4.0182   4.0242   4.2541   4.2595   4.3482   4.3534   4.4651
     4.4723   4.4910   4.5035   4.6653   5.1672   5.3197   5.3301   5.3995
     5.4067   5.5300   5.5767   5.5862   5.6512   5.6962   5.7027   5.7099
     5.7497   5.7531   5.7540   5.8004   6.0181   6.0571   6.0768   6.0899
     6.0917   6.0978   6.1011   6.1042   6.1045   6.1547   6.1739   6.2055

          k =-0.2500 0.2500 0.2500 (167588 PWs)   bands (ev):

   -19.1853  -7.2130  -6.8674  -6.3419  -6.3410  -5.9126  -5.5030  -5.4115
    -5.4097  -5.2154  -5.2142  -5.0977  -5.0953  -5.0186  -4.9952  -4.9225
    -4.8382  -4.8337  -4.7952  -4.7944  -4.6347  -4.6182  -4.6172  -4.6151
    -4.6086  -4.5536  -4.5533  -4.5424  -4.5405  -4.5044  -4.4934  -4.4904
    -4.4503  -4.4492  -4.4165  -4.4151  -4.3652  -4.3616  -4.3527  -4.3513
    -4.3453  -4.3328  -4.3321  -4.2921  -4.2741  -4.2727  -4.2661  -4.2653
    -4.2339  -4.1850  -4.1704  -4.1680  -4.1675  -4.1635  -4.1574  -4.1522
    -4.1514  -4.1501  -4.0885  -4.0842  -4.0394  -4.0346  -4.0235  -3.9986
    -3.9972  -3.9803  -3.9742  -3.9738  -3.9705  -3.9673  -3.9190  -3.9183
    -3.9064  -3.9042  -3.8025  -3.7986  -3.7980  -3.7921  -3.7566  -3.7506
    -3.7327  -3.7057  -3.7038  -3.6761  -3.6728  -3.6571  -3.6521  -3.6415
    -3.6374  -3.5864  -3.5831  -3.5720  -3.5506  -3.5411  -3.5399  -3.5358
    -3.5355  -3.5121  -3.5080  -3.4784  -3.4723  -3.4525  -3.4495  -3.4202
    -3.4158  -3.3992  -3.3842  -3.3699  -3.3616  -3.3341  -3.3320  -3.2960
    -3.2890  -3.2869  -3.2747  -3.2739  -3.2692  -3.2640  -3.2333  -3.2201
    -3.1814  -3.1790  -3.1716  -3.1617  -3.1612  -3.1560  -3.1369  -3.1362
    -3.1156  -3.1150  -3.1130  -3.0880  -3.0876  -3.0803  -3.0777  -3.0749
    -3.0407  -3.0377  -3.0034  -3.0005  -3.0001  -2.9983  -2.9967  -2.9179
    -2.9085  -2.9075  -2.9044  -2.9024  -2.9013  -2.8979  -2.8968  -2.8959
    -2.8957  -2.8868  -2.8789  -2.8634  -2.8602  -2.8576  -2.8557  -2.8442
    -2.8403  -2.8025  -2.8008  -2.8003  -2.7965  -2.7946  -2.7785  -2.7768
    -2.7698  -2.7688  -2.7659  -2.7093  -2.7072  -2.7029  -2.7015  -2.6975
    -2.6942  -2.6684  -2.6098  -2.6094  -2.6080  -2.6052  -2.5949  -2.5925
    -2.5867  -2.5787  -2.5763  -2.5441  -2.5382  -2.5344  -2.5323  -2.5293
    -2.5283  -2.4921  -2.4905  -2.4820  -2.4806  -2.4789  -2.4769  -2.4360
    -2.4192  -2.4170  -2.3642  -2.3606  -2.3466  -2.3439  -2.3357  -2.3343
    -2.2908  -2.2851  -2.2641  -2.2521  -2.2368  -2.2334  -2.2304  -2.2116
    -2.2092  -2.2007  -2.1833  -2.1515  -2.1429  -2.1321  -2.1270  -2.1260
    -2.1200  -2.1166  -2.1113  -2.1015  -2.0994  -2.0971  -2.0932  -2.0904
    -2.0890  -2.0820  -2.0782  -2.0627  -2.0602  -2.0589  -2.0538  -2.0511
    -2.0483  -2.0288  -2.0247  -2.0146  -2.0130  -2.0071  -2.0060  -1.9694
    -1.9374  -1.9349  -1.9002  -1.8858  -1.8840  -1.8762  -1.8699  -1.8514
    -1.8483  -1.8372  -1.8329  -1.8321  -1.8302  -1.8300  -1.8261  -1.7965
    -1.7952  -1.7942  -1.7515  -1.7493  -1.7129  -1.7073  -1.6638  -1.6624
    -1.6500  -1.6282  -1.6239  -1.6192  -1.6102  -1.6033  -1.5893  -1.5858
    -1.5818  -1.5798  -1.5773  -1.5765  -1.5747  -1.5733  -1.5557  -1.5524
    -1.5417  -1.5263  -1.5098  -1.5082  -1.4875  -1.4803  -1.4780  -1.4757
    -1.4749  -1.4694  -1.4526  -1.4475  -1.4360  -1.4326  -1.4217  -1.4119
    -1.4006  -1.3956  -1.3696  -1.3666  -1.3600  -1.3572  -1.3281  -1.3213
    -1.3159  -1.3125  -1.3081  -1.3057  -1.2856  -1.2824  -1.2745  -1.2710
    -1.2641  -1.2573  -1.2537  -1.2499  -1.2488  -1.2378  -1.2315  -1.2254
    -1.2180  -1.2170  -1.2113  -1.2023  -1.2017  -1.1940  -1.1704  -1.1547
    -1.1497  -1.1472  -1.1456  -1.1437  -1.1334  -1.1062  -1.0887  -1.0873
    -1.0867  -1.0853  -1.0818  -1.0776  -1.0690  -1.0638  -1.0612  -1.0275
    -1.0250  -1.0189  -1.0179  -0.9968  -0.9955  -0.9859  -0.9577  -0.9485
    -0.9238  -0.9198  -0.8941  -0.8935  -0.8899  -0.8898  -0.8873  -0.8827
    -0.8790  -0.8788  -0.8753  -0.8731  -0.8431  -0.8414  -0.8231  -0.8204
    -0.8194  -0.8170  -0.8155  -0.8130  -0.7980  -0.5249  -0.5107  -0.4533
    -0.4504  -0.4166  -0.2548  -0.1918  -0.1894  -0.1550   0.1290   0.1303
     0.4590   0.4629   0.5571   0.5582   0.5979   0.6011   0.7422   0.7468
     0.8655   0.8689   0.9628   1.5545   1.5713   1.5729   1.6112   1.6174
     1.6636   1.6718   1.7394   1.7453   1.9472   1.9508   2.1880   2.2602
     2.2687   2.2807   2.6597   2.6687   2.7336   2.7351   2.7410   2.7440
     2.8931   2.8944   2.9548   3.0349   3.0436   3.2666   3.2701   3.4021
     3.4263   3.4340   3.6985   3.7062   3.8135   3.8338   3.8357   3.9106
     3.9347   4.0182   4.0242   4.2541   4.2595   4.3482   4.3534   4.4651
     4.4723   4.4910   4.5035   4.6654   5.1584   5.3174   5.3258   5.3995
     5.4062   5.5337   5.5769   5.5864   5.6579   5.6985   5.7026   5.7314
     5.7492   5.7535   5.7631   5.8005   6.0422   6.0579   6.0776   6.0866
     6.0942   6.0982   6.1031   6.1044   6.1119   6.1331   6.1895   6.2245

     the Fermi energy is     0.8182 ev

!    total energy              =   -7425.28335690 Ry
     Harris-Foulkes estimate   =   -7425.28335690 Ry
     estimated scf accuracy    <          3.3E-09 Ry

     The total energy is the sum of the following terms:

     one-electron contribution =  -48756.02457870 Ry
     hartree contribution      =   24927.50422504 Ry
     xc contribution           =   -3604.25016638 Ry
     ewald contribution        =   20007.48975175 Ry
     smearing contrib. (-TS)   =      -0.00258861 Ry

     convergence has been achieved in  29 iterations

     Writing output data file 1054053.save

     init_run     :    106.85s CPU    114.89s WALL (       1 calls)
     electrons    :   7348.94s CPU   7801.07s WALL (       1 calls)

     Called by init_run:
     wfcinit      :     78.69s CPU     85.96s WALL (       1 calls)
     potinit      :      6.04s CPU      6.41s WALL (       1 calls)

     Called by electrons:
     c_bands      :   5899.81s CPU   6258.45s WALL (      30 calls)
     sum_band     :    947.59s CPU   1022.75s WALL (      30 calls)
     v_of_rho     :    123.34s CPU    135.16s WALL (      30 calls)
     newd         :    387.07s CPU    392.85s WALL (      30 calls)
     mix_rho      :      3.82s CPU      4.31s WALL (      30 calls)
     vdW_energy   :     11.46s CPU     12.18s WALL (      30 calls)
     vdW_ffts     :     64.48s CPU     70.72s WALL (      60 calls)
     vdW_v        :     13.39s CPU     14.29s WALL (      30 calls)

     Called by c_bands:
     init_us_2    :     16.62s CPU     16.90s WALL (     366 calls)
     cegterg      :   5826.53s CPU   6183.96s WALL (     180 calls)

     Called by *egterg:
     h_psi        :   2682.81s CPU   3008.13s WALL (     848 calls)
     s_psi        :    395.55s CPU    397.69s WALL (     848 calls)
     g_psi        :      5.04s CPU      5.01s WALL (     662 calls)
     cdiaghg      :   1500.65s CPU   1504.59s WALL (     836 calls)

     Called by h_psi:
     add_vuspsi   :    394.99s CPU    397.12s WALL (     848 calls)

     General routines
     calbec       :    584.23s CPU    586.31s WALL (    1028 calls)
     fft          :    139.23s CPU    150.47s WALL (    1980 calls)
     ffts         :      1.50s CPU      1.86s WALL (      60 calls)
     fftw         :   2014.24s CPU   2352.22s WALL (  482224 calls)
     interpolate  :      4.47s CPU      5.33s WALL (      60 calls)
     davcio       :      0.00s CPU      0.20s WALL (       6 calls)

     Parallel routines
     fft_scatter  :   1524.11s CPU   1776.59s WALL (  484264 calls)

     PWSCF        :     2h 4m CPU        2h12m WALL


   This run was terminated on:   1:39:51  30Jun2015            

=------------------------------------------------------------------------------=
   JOB DONE.
=------------------------------------------------------------------------------=
