Setting SGE environment for SCC

     Program PWSCF v.5.1.2 starts on 25Jun2015 at  8:32:13 

     This program is part of the open-source Quantum ESPRESSO suite
     for quantum simulation of materials; please cite
         "P. Giannozzi et al., J. Phys.:Condens. Matter 21 395502 (2009);
          URL http://www.quantum-espresso.org", 
     in publications or presentations arising from this work. More details at
     http://www.quantum-espresso.org/quote

     Parallel version (MPI), running on    32 processors
     R & G space division:  proc/nbgrp/npool/nimage =      32
     Reading input from top.O1.Au62.d.2.6.phi.45.psi.90.in
Warning: card &IONS ignored
Warning: card / ignored
Warning: card &CELL ignored
Warning: card / ignored

     Current dimensions of program PWSCF are:
     Max number of different atomic species (ntypx) = 10
     Max number of k-points (npk) =  40000
     Max angular momentum in pseudopotentials (lmaxx) =  3

     IMPORTANT: XC functional enforced from input :
     Exchange-correlation      = VDW-DF ( 1  4  4  0 1 0)
     Any further DFT definition will be discarded
     Please, verify this is what you really want


     Subspace diagonalization in iterative solution of the eigenvalue problem:
     a serial algorithm will be used


     Parallelization info
     --------------------
     sticks:   dense  smooth     PW     G-vecs:    dense   smooth      PW
     Min         578     289     74               118518    41891    5486
     Max         579     290     75               118533    41932    5497
     Sum       18505    9265   2385              3792731  1341081  175711


     Title: 
     top.O1.Au62.d.2.6.phi.45.psi.90                                            


     bravais-lattice index     =            8
     lattice parameter (alat)  =      24.1233  a.u.
     unit-cell volume          =   28076.2361 (a.u.)^3
     number of atoms/cell      =           75
     number of atomic types    =            3
     number of electrons       =       800.00
     number of Kohn-Sham states=          480
     kinetic-energy cutoff     =      50.0000  Ry
     charge density cutoff     =     400.0000  Ry
     convergence threshold     =      1.0E-08
     mixing beta               =       0.7000
     number of iterations used =            8  plain     mixing
     Exchange-correlation      = VDW-DF ( 1  4  4  0 1 0)

     celldm(1)=  24.123277  celldm(2)=   1.000000  celldm(3)=   2.000000
     celldm(4)=   0.000000  celldm(5)=   0.000000  celldm(6)=   0.000000

     crystal axes: (cart. coord. in units of alat)
               a(1) = (   1.000000   0.000000   0.000000 )  
               a(2) = (   0.000000   1.000000   0.000000 )  
               a(3) = (   0.000000   0.000000   2.000000 )  

     reciprocal axes: (cart. coord. in units 2 pi/alat)
               b(1) = (  1.000000  0.000000  0.000000 )  
               b(2) = (  0.000000  1.000000  0.000000 )  
               b(3) = (  0.000000  0.000000  0.500000 )  


     PseudoPot. # 1 for Au read from file:
     /home/scc/andrejb/qe/pseudo/Au.pbe-nd-van.UPF
     MD5 check sum: 458681b50f36d87ef23c61b04bba420a
     Pseudo is Ultrasoft + core correction, Zval = 11.0
     Generated by new atomic code, or converted to UPF format
     Using radial grid of  985 points,  3 beta functions with: 
                l(1) =   1
                l(2) =   2
                l(3) =   2
     Q(r) pseudized with  8 coefficients,  rinner =    1.100   1.100   1.100
                                                       1.100   1.100

     PseudoPot. # 2 for H  read from file:
     /home/scc/andrejb/qe/pseudo/H.pbe-van_ak.UPF
     MD5 check sum: 403db7282739603aa925980fa9b8608d
     Pseudo is Ultrasoft, Zval =  1.0
     Generated by new atomic code, or converted to UPF format
     Using radial grid of  615 points,  1 beta functions with: 
                l(1) =   0
     Q(r) pseudized with  8 coefficients,  rinner =    0.800

     PseudoPot. # 3 for O  read from file:
     /home/scc/andrejb/qe/pseudo/O.pbe-van_ak.UPF
     MD5 check sum: 4b8c549914a63cae506c6ff22b5af4fe
     Pseudo is Ultrasoft, Zval =  6.0
     Generated by new atomic code, or converted to UPF format
     Using radial grid of  737 points,  4 beta functions with: 
                l(1) =   0
                l(2) =   0
                l(3) =   1
                l(4) =   1
     Q(r) pseudized with  8 coefficients,  rinner =    0.800   0.800   0.800


     vdW kernel table read from file vdW_kernel_table
     MD5 check sum: 48e77a2e26edf626eeb0eaa751ad5cac

     atomic species   valence    mass     pseudopotential
        Au            11.00   196.96657     Au( 1.00)
        H              1.00     1.01000     H ( 1.00)
        O              6.00    16.00000     O ( 1.00)

     No symmetry found



   Cartesian axes

     site n.     atom                  positions (alat units)
         1           O   tau(   1) = (   0.4998324   0.3332216   0.7029927  )
         2           H   tau(   2) = (   0.4942419   0.2877277   0.6420053  )
         3           H   tau(   3) = (   0.5052408   0.2853639   0.7621435  )
         4           Au  tau(   4) = (   0.0000000   0.0000000   0.0000000  )
         5           Au  tau(   5) = (   0.3332217   0.0000000   0.0000000  )
         6           Au  tau(   6) = (   0.6664435   0.0000000   0.0000000  )
         7           Au  tau(   7) = (   0.1666109   0.1666109   0.0000000  )
         8           Au  tau(   8) = (   0.4998326   0.1666109   0.0000000  )
         9           Au  tau(   9) = (   0.8330542   0.1666109   0.0000000  )
        10           Au  tau(  10) = (   0.0000000   0.3332217   0.0000000  )
        11           Au  tau(  11) = (   0.3332217   0.3332217   0.0000000  )
        12           Au  tau(  12) = (   0.6664435   0.3332217   0.0000000  )
        13           Au  tau(  13) = (   0.1666109   0.4998326   0.0000000  )
        14           Au  tau(  14) = (   0.4998326   0.4998326   0.0000000  )
        15           Au  tau(  15) = (   0.8330542   0.4998326   0.0000000  )
        16           Au  tau(  16) = (   0.0000000   0.6664435   0.0000000  )
        17           Au  tau(  17) = (   0.3332217   0.6664435   0.0000000  )
        18           Au  tau(  18) = (   0.6664435   0.6664435   0.0000000  )
        19           Au  tau(  19) = (   0.1666109   0.8330542   0.0000000  )
        20           Au  tau(  20) = (   0.4998326   0.8330542   0.0000000  )
        21           Au  tau(  21) = (   0.8330542   0.8330542   0.0000000  )
        22           Au  tau(  22) = (   0.1666109   0.0000000   0.1666109  )
        23           Au  tau(  23) = (   0.4998326   0.0000000   0.1666109  )
        24           Au  tau(  24) = (   0.8330542   0.0000000   0.1666109  )
        25           Au  tau(  25) = (   0.0000000   0.1666109   0.1666109  )
        26           Au  tau(  26) = (   0.3332217   0.1666109   0.1666109  )
        27           Au  tau(  27) = (   0.6664435   0.1666109   0.1666109  )
        28           Au  tau(  28) = (   0.1666109   0.3332217   0.1666109  )
        29           Au  tau(  29) = (   0.4998326   0.3332217   0.1666109  )
        30           Au  tau(  30) = (   0.8330542   0.3332217   0.1666109  )
        31           Au  tau(  31) = (   0.0000000   0.4998326   0.1666109  )
        32           Au  tau(  32) = (   0.3332217   0.4998326   0.1666109  )
        33           Au  tau(  33) = (   0.6664435   0.4998326   0.1666109  )
        34           Au  tau(  34) = (   0.1666109   0.6664435   0.1666109  )
        35           Au  tau(  35) = (   0.4998326   0.6664435   0.1666109  )
        36           Au  tau(  36) = (   0.8330542   0.6664435   0.1666109  )
        37           Au  tau(  37) = (   0.0000000   0.8330542   0.1666109  )
        38           Au  tau(  38) = (   0.3332217   0.8330542   0.1666109  )
        39           Au  tau(  39) = (   0.6664435   0.8330542   0.1666109  )
        40           Au  tau(  40) = (  -0.0000182  -0.0000182   0.3335478  )
        41           Au  tau(  41) = (   0.3332215  -0.0000181   0.3335472  )
        42           Au  tau(  42) = (   0.6664447  -0.0000183   0.3335481  )
        43           Au  tau(  43) = (  -0.0000181   0.3332215   0.3335472  )
        44           Au  tau(  44) = (   0.3332215   0.3332215   0.3335468  )
        45           Au  tau(  45) = (   0.6664445   0.3332215   0.3335478  )
        46           Au  tau(  46) = (  -0.0000183   0.6664447   0.3335481  )
        47           Au  tau(  47) = (   0.3332215   0.6664445   0.3335478  )
        48           Au  tau(  48) = (   0.6664446   0.6664446   0.3335486  )
        49           Au  tau(  49) = (   0.1666097   0.1666097   0.3335483  )
        50           Au  tau(  50) = (   0.4998320   0.1666098   0.3335477  )
        51           Au  tau(  51) = (   0.8330732   0.1666096   0.3335481  )
        52           Au  tau(  52) = (   0.1666098   0.4998320   0.3335477  )
        53           Au  tau(  53) = (   0.4998321   0.4998321   0.3335470  )
        54           Au  tau(  54) = (   0.8330730   0.4998322   0.3335474  )
        55           Au  tau(  55) = (   0.1666096   0.8330732   0.3335481  )
        56           Au  tau(  56) = (   0.4998322   0.8330730   0.3335474  )
        57           Au  tau(  57) = (   0.8330731   0.8330731   0.3335478  )
        58           Au  tau(  58) = (   0.1666104  -0.0000111   0.4993095  )
        59           Au  tau(  59) = (   0.4998323  -0.0000112   0.4993099  )
        60           Au  tau(  60) = (   0.8330661  -0.0000111   0.4993009  )
        61           Au  tau(  61) = (  -0.0000111   0.1666104   0.4993095  )
        62           Au  tau(  62) = (   0.3332214   0.1666106   0.4993185  )
        63           Au  tau(  63) = (   0.6664437   0.1666106   0.4993187  )
        64           Au  tau(  64) = (   0.1666106   0.3332214   0.4993185  )
        65           Au  tau(  65) = (   0.4998324   0.3332216   0.4993185  )
        66           Au  tau(  66) = (   0.8330659   0.3332215   0.4993103  )
        67           Au  tau(  67) = (  -0.0000112   0.4998323   0.4993099  )
        68           Au  tau(  68) = (   0.3332216   0.4998324   0.4993185  )
        69           Au  tau(  69) = (   0.6664436   0.4998325   0.4993187  )
        70           Au  tau(  70) = (   0.1666106   0.6664437   0.4993187  )
        71           Au  tau(  71) = (   0.4998325   0.6664436   0.4993187  )
        72           Au  tau(  72) = (   0.8330658   0.6664438   0.4993102  )
        73           Au  tau(  73) = (  -0.0000111   0.8330661   0.4993009  )
        74           Au  tau(  74) = (   0.3332215   0.8330659   0.4993103  )
        75           Au  tau(  75) = (   0.6664438   0.8330658   0.4993102  )

     number of k points=     6  Marzari-Vanderbilt smearing, width (Ry)=  0.0200
                       cart. coord. in units 2pi/alat
        k(    1) = (   0.2500000   0.2500000   0.0833333), wk =   0.3333333
        k(    2) = (   0.2500000   0.2500000  -0.2500000), wk =   0.3333333
        k(    3) = (  -0.2500000  -0.2500000   0.0833333), wk =   0.3333333
        k(    4) = (  -0.2500000   0.2500000  -0.0833333), wk =   0.3333333
        k(    5) = (   0.2500000  -0.2500000  -0.0833333), wk =   0.3333333
        k(    6) = (  -0.2500000   0.2500000   0.2500000), wk =   0.3333333

     Dense  grid:  3792731 G-vectors     FFT dimensions: ( 160, 160, 320)

     Smooth grid:  1341081 G-vectors     FFT dimensions: ( 120, 120, 225)

     Largest allocated arrays     est. size (Mb)     dimensions
        Kohn-Sham Wavefunctions        38.58 Mb     (    5267,  480)
        NL pseudopotentials            76.03 Mb     (    5267,  946)
        Each V/rho on FFT grid          3.91 Mb     (  256000)
        Each G-vector array             0.90 Mb     (  118520)
        G-vector shells                 0.08 Mb     (   10286)
     Largest temporary arrays     est. size (Mb)     dimensions
        Auxiliary wavefunctions       154.31 Mb     (    5267, 1920)
        Each subspace H/S matrix       56.25 Mb     (    1920, 1920)
        Each <psi_i|beta_j> matrix      6.93 Mb     (     946,  480)
        Arrays for rho mixing          31.25 Mb     (  256000,    8)

     Initial potential from superposition of free atoms
     Check: negative starting charge=   -1.945085

     starting charge  799.16392, renormalised to  800.00000

     negative rho (up, down):  1.947E+00 0.000E+00


     ************************************************************************
     *
     * You are using vdW-DF for exchange-correlation in this calculation.
     * Please cite the following three references that made this development
     * possible:
     *
     *   M. Dion, H. Rydberg, E. Schroder, D. C. Langreth, and
     *   B. I. Lundqvist, Phys. Rev. Lett. 92, 246401 (2004).
     *
     *   T. Thonhauser, V. R. Cooper, S. Li, A. Puzder, P. Hyldgaard, and
     *   D. C. Langreth, Phys. Rev. B 76, 125112 (2007).
     *
     *   G. Roman-Perez and J. M. Soler, Phys. Rev. Lett. 103, 096102 (2009).
     *
     *
     * If you are using vdW-DF2, please also cite:
     *
     *   K. Lee, E. D. Murray, L. Kong, B. I. Lundqvist, and
     *   D. C. Langreth, Phys. Rev. B 82, 081101(R) (2010).
     *
     *
     * If you are calculating the stress with vdW-DF, please also cite:
     *
     *   R. Sabatini, E. Kucukbenli, B. Kolb, T. Thonhauser, and
     *   S. de Gironcoli, J. Phys.: Condens. Matter 24, 424209 (2012).
     *
     ************************************************************************

     Carrying out vdW-DF run using the following parameters:

     Nqs =      20    Nr_points =    1024   r_max =   100.000
     q_mesh =
               0.00001000     0.04494208     0.09755937     0.15916263
               0.23128650     0.31572767     0.41458969     0.53033537
               0.66584808     0.82450364     1.01025438     1.22772762
               1.48234092     1.78043706     2.12944203     2.53805004
               3.01644009     3.57652955     4.23227104     5.00000000

     Gradients computed in reciprocal space

     ************************************************************************


     Starting wfc are  654 randomized atomic wfcs

     total cpu time spent up to now is      109.0 secs

     Self-consistent Calculation

     iteration #  1     ecut=    50.00 Ry     beta=0.70
     Davidson diagonalization with overlap
     ethr =  1.00E-02,  avg # of iterations =  3.0

     Threshold (ethr) on eigenvalues was too large:
     Diagonalizing with lowered threshold

     Davidson diagonalization with overlap
     ethr =  4.15E-04,  avg # of iterations =  2.0

     negative rho (up, down):  1.947E+00 0.000E+00

     total cpu time spent up to now is      519.4 secs

     total energy              =   -7423.03907801 Ry
     Harris-Foulkes estimate   =   -7426.02715147 Ry
     estimated scf accuracy    <       3.69125557 Ry

     iteration #  2     ecut=    50.00 Ry     beta=0.70
     Davidson diagonalization with overlap
     ethr =  4.61E-04,  avg # of iterations = 11.3

     negative rho (up, down):  1.943E+00 0.000E+00

     total cpu time spent up to now is     1230.5 secs

     total energy              =   -7415.44425626 Ry
     Harris-Foulkes estimate   =   -7432.39484778 Ry
     estimated scf accuracy    <      87.44929375 Ry

     iteration #  3     ecut=    50.00 Ry     beta=0.70
     Davidson diagonalization with overlap
     ethr =  4.61E-04,  avg # of iterations =  6.2

     negative rho (up, down):  1.953E+00 0.000E+00

     total cpu time spent up to now is     1673.6 secs

     total energy              =   -7424.17999006 Ry
     Harris-Foulkes estimate   =   -7425.80843756 Ry
     estimated scf accuracy    <       6.57771535 Ry

     iteration #  4     ecut=    50.00 Ry     beta=0.70
     Davidson diagonalization with overlap
     ethr =  4.61E-04,  avg # of iterations =  5.0

     negative rho (up, down):  1.957E+00 0.000E+00

     total cpu time spent up to now is     1913.5 secs

     total energy              =   -7424.93800771 Ry
     Harris-Foulkes estimate   =   -7425.53880012 Ry
     estimated scf accuracy    <       2.71539464 Ry

     iteration #  5     ecut=    50.00 Ry     beta=0.70
     Davidson diagonalization with overlap
     ethr =  3.39E-04,  avg # of iterations =  6.8

     negative rho (up, down):  1.963E+00 0.000E+00

     total cpu time spent up to now is     2177.7 secs

     total energy              =   -7425.00987125 Ry
     Harris-Foulkes estimate   =   -7425.54157113 Ry
     estimated scf accuracy    <       4.20027689 Ry

     iteration #  6     ecut=    50.00 Ry     beta=0.70
     Davidson diagonalization with overlap
     ethr =  3.39E-04,  avg # of iterations =  4.3

     negative rho (up, down):  1.967E+00 0.000E+00

     total cpu time spent up to now is     2397.9 secs

     total energy              =   -7425.23663399 Ry
     Harris-Foulkes estimate   =   -7425.29576178 Ry
     estimated scf accuracy    <       0.22555236 Ry

     iteration #  7     ecut=    50.00 Ry     beta=0.70
     Davidson diagonalization with overlap
     ethr =  2.82E-05,  avg # of iterations =  6.7

     negative rho (up, down):  1.970E+00 0.000E+00

     total cpu time spent up to now is     2666.2 secs

     total energy              =   -7425.24325373 Ry
     Harris-Foulkes estimate   =   -7425.28677942 Ry
     estimated scf accuracy    <       0.22430082 Ry

     iteration #  8     ecut=    50.00 Ry     beta=0.70
     Davidson diagonalization with overlap
     ethr =  2.80E-05,  avg # of iterations =  3.0

     negative rho (up, down):  1.971E+00 0.000E+00

     total cpu time spent up to now is     2873.2 secs

     total energy              =   -7425.25103761 Ry
     Harris-Foulkes estimate   =   -7425.27018928 Ry
     estimated scf accuracy    <       0.08082818 Ry

     iteration #  9     ecut=    50.00 Ry     beta=0.70
     Davidson diagonalization with overlap
     ethr =  1.01E-05,  avg # of iterations = 10.5

     negative rho (up, down):  1.972E+00 0.000E+00

     total cpu time spent up to now is     3183.6 secs

     total energy              =   -7425.25273308 Ry
     Harris-Foulkes estimate   =   -7425.26255523 Ry
     estimated scf accuracy    <       0.03332030 Ry

     iteration # 10     ecut=    50.00 Ry     beta=0.70
     Davidson diagonalization with overlap
     ethr =  4.17E-06,  avg # of iterations =  5.2

     negative rho (up, down):  1.973E+00 0.000E+00

     total cpu time spent up to now is     3424.3 secs

     total energy              =   -7425.25468158 Ry
     Harris-Foulkes estimate   =   -7425.25742169 Ry
     estimated scf accuracy    <       0.00764073 Ry

     iteration # 11     ecut=    50.00 Ry     beta=0.70
     Davidson diagonalization with overlap
     ethr =  9.55E-07,  avg # of iterations =  7.5

     negative rho (up, down):  1.974E+00 0.000E+00

     total cpu time spent up to now is     3688.4 secs

     total energy              =   -7425.25529259 Ry
     Harris-Foulkes estimate   =   -7425.25622337 Ry
     estimated scf accuracy    <       0.00291113 Ry

     iteration # 12     ecut=    50.00 Ry     beta=0.70
     Davidson diagonalization with overlap
     ethr =  3.64E-07,  avg # of iterations =  2.2

     negative rho (up, down):  1.974E+00 0.000E+00

     total cpu time spent up to now is     3883.6 secs

     total energy              =   -7425.25509865 Ry
     Harris-Foulkes estimate   =   -7425.25579608 Ry
     estimated scf accuracy    <       0.00133143 Ry

     iteration # 13     ecut=    50.00 Ry     beta=0.70
     Davidson diagonalization with overlap
     ethr =  1.66E-07,  avg # of iterations =  6.3

     negative rho (up, down):  1.974E+00 0.000E+00

     total cpu time spent up to now is     4236.4 secs

     total energy              =   -7425.25435623 Ry
     Harris-Foulkes estimate   =   -7425.25679321 Ry
     estimated scf accuracy    <       0.01301123 Ry

     iteration # 14     ecut=    50.00 Ry     beta=0.70
     Davidson diagonalization with overlap
     ethr =  1.66E-07,  avg # of iterations =  3.0

     negative rho (up, down):  1.974E+00 0.000E+00

     total cpu time spent up to now is     4500.4 secs

     total energy              =   -7425.25547237 Ry
     Harris-Foulkes estimate   =   -7425.25559524 Ry
     estimated scf accuracy    <       0.00038000 Ry

     iteration # 15     ecut=    50.00 Ry     beta=0.70
     Davidson diagonalization with overlap
     ethr =  4.75E-08,  avg # of iterations =  3.0

     negative rho (up, down):  1.974E+00 0.000E+00

     total cpu time spent up to now is     4719.9 secs

     total energy              =   -7425.25541475 Ry
     Harris-Foulkes estimate   =   -7425.25565150 Ry
     estimated scf accuracy    <       0.00149439 Ry

     iteration # 16     ecut=    50.00 Ry     beta=0.70
     Davidson diagonalization with overlap
     ethr =  4.75E-08,  avg # of iterations =  2.0

     negative rho (up, down):  1.974E+00 0.000E+00

     total cpu time spent up to now is     4917.4 secs

     total energy              =   -7425.25547661 Ry
     Harris-Foulkes estimate   =   -7425.25563466 Ry
     estimated scf accuracy    <       0.00117495 Ry

     iteration # 17     ecut=    50.00 Ry     beta=0.70
     Davidson diagonalization with overlap
     ethr =  4.75E-08,  avg # of iterations =  2.0

     negative rho (up, down):  1.974E+00 0.000E+00

     total cpu time spent up to now is     5116.5 secs

     total energy              =   -7425.25553884 Ry
     Harris-Foulkes estimate   =   -7425.25556727 Ry
     estimated scf accuracy    <       0.00012369 Ry

     iteration # 18     ecut=    50.00 Ry     beta=0.70
     Davidson diagonalization with overlap
     ethr =  1.55E-08,  avg # of iterations =  2.0

     negative rho (up, down):  1.974E+00 0.000E+00

     total cpu time spent up to now is     5307.7 secs

     total energy              =   -7425.25555241 Ry
     Harris-Foulkes estimate   =   -7425.25555778 Ry
     estimated scf accuracy    <       0.00002234 Ry

     iteration # 19     ecut=    50.00 Ry     beta=0.70
     Davidson diagonalization with overlap
     ethr =  2.79E-09,  avg # of iterations =  2.0

     negative rho (up, down):  1.974E+00 0.000E+00

     total cpu time spent up to now is     5509.9 secs

     total energy              =   -7425.25555430 Ry
     Harris-Foulkes estimate   =   -7425.25555666 Ry
     estimated scf accuracy    <       0.00000892 Ry

     iteration # 20     ecut=    50.00 Ry     beta=0.70
     Davidson diagonalization with overlap
     ethr =  1.11E-09,  avg # of iterations =  2.0

     negative rho (up, down):  1.974E+00 0.000E+00

     total cpu time spent up to now is     5708.7 secs

     total energy              =   -7425.25555524 Ry
     Harris-Foulkes estimate   =   -7425.25555610 Ry
     estimated scf accuracy    <       0.00000288 Ry

     iteration # 21     ecut=    50.00 Ry     beta=0.70
     Davidson diagonalization with overlap
     ethr =  3.59E-10,  avg # of iterations =  2.0

     negative rho (up, down):  1.974E+00 0.000E+00

     total cpu time spent up to now is     5904.7 secs

     total energy              =   -7425.25555566 Ry
     Harris-Foulkes estimate   =   -7425.25555574 Ry
     estimated scf accuracy    <       0.00000025 Ry

     iteration # 22     ecut=    50.00 Ry     beta=0.70
     Davidson diagonalization with overlap
     ethr =  3.17E-11,  avg # of iterations =  3.0

     negative rho (up, down):  1.974E+00 0.000E+00

     total cpu time spent up to now is     6173.3 secs

     total energy              =   -7425.25555572 Ry
     Harris-Foulkes estimate   =   -7425.25555577 Ry
     estimated scf accuracy    <       0.00000020 Ry

     iteration # 23     ecut=    50.00 Ry     beta=0.70
     Davidson diagonalization with overlap
     ethr =  2.51E-11,  avg # of iterations =  2.0

     negative rho (up, down):  1.974E+00 0.000E+00

     total cpu time spent up to now is     6377.5 secs

     total energy              =   -7425.25555572 Ry
     Harris-Foulkes estimate   =   -7425.25555577 Ry
     estimated scf accuracy    <       0.00000020 Ry

     iteration # 24     ecut=    50.00 Ry     beta=0.70
     Davidson diagonalization with overlap
     ethr =  2.49E-11,  avg # of iterations =  2.0

     negative rho (up, down):  1.974E+00 0.000E+00

     total cpu time spent up to now is     6575.2 secs

     total energy              =   -7425.25555576 Ry
     Harris-Foulkes estimate   =   -7425.25555576 Ry
     estimated scf accuracy    <       0.00000005 Ry

     iteration # 25     ecut=    50.00 Ry     beta=0.70
     Davidson diagonalization with overlap
     ethr =  5.81E-12,  avg # of iterations =  2.7

     negative rho (up, down):  1.974E+00 0.000E+00

     total cpu time spent up to now is     6769.3 secs

     End of self-consistent calculation

          k = 0.2500 0.2500 0.0833 (167653 PWs)   bands (ev):

   -19.6223  -7.9042  -6.8147  -6.2887  -6.2860  -5.8586  -5.4489  -5.3569
    -5.3562  -5.1624  -5.1599  -5.0436  -5.0412  -4.9656  -4.9413  -4.8690
    -4.7857  -4.7800  -4.7412  -4.7408  -4.5829  -4.5651  -4.5631  -4.5621
    -4.5554  -4.5008  -4.4987  -4.4887  -4.4875  -4.4511  -4.4384  -4.4373
    -4.3960  -4.3956  -4.3652  -4.3626  -4.3151  -4.3090  -4.3014  -4.2986
    -4.2922  -4.2791  -4.2784  -4.2414  -4.2229  -4.2196  -4.2133  -4.2122
    -4.1821  -4.1331  -4.1172  -4.1156  -4.1144  -4.1116  -4.1030  -4.1007
    -4.0988  -4.0964  -4.0401  -4.0334  -3.9893  -3.9819  -3.9748  -3.9526
    -3.9469  -3.9294  -3.9246  -3.9204  -3.9197  -3.9146  -3.8771  -3.8639
    -3.8560  -3.8513  -3.8409  -3.7469  -3.7456  -3.7392  -3.7242  -3.7022
    -3.6995  -3.6779  -3.6494  -3.6468  -3.6200  -3.6195  -3.6003  -3.5967
    -3.5894  -3.5845  -3.5307  -3.5293  -3.5114  -3.4946  -3.4895  -3.4833
    -3.4822  -3.4746  -3.4559  -3.4524  -3.4183  -3.4165  -3.4021  -3.3928
    -3.3667  -3.3596  -3.3487  -3.3181  -3.3161  -3.2823  -3.2792  -3.2431
    -3.2356  -3.2350  -3.2224  -3.2191  -3.2159  -3.2153  -3.1835  -3.1669
    -3.1299  -3.1277  -3.1188  -3.1107  -3.1094  -3.1073  -3.0852  -3.0843
    -3.0656  -3.0640  -3.0606  -3.0364  -3.0347  -3.0277  -3.0255  -3.0221
    -2.9878  -2.9872  -2.9532  -2.9486  -2.9474  -2.9459  -2.9436  -2.8647
    -2.8602  -2.8556  -2.8528  -2.8495  -2.8487  -2.8453  -2.8445  -2.8425
    -2.8419  -2.8333  -2.8254  -2.8132  -2.8074  -2.8046  -2.8033  -2.7921
    -2.7880  -2.7515  -2.7490  -2.7476  -2.7436  -2.7418  -2.7258  -2.7238
    -2.7181  -2.7161  -2.7124  -2.6614  -2.6548  -2.6511  -2.6480  -2.6446
    -2.6419  -2.6169  -2.5614  -2.5570  -2.5559  -2.5517  -2.5434  -2.5404
    -2.5353  -2.5279  -2.5237  -2.4980  -2.4889  -2.4856  -2.4810  -2.4762
    -2.4755  -2.4420  -2.4402  -2.4325  -2.4270  -2.4264  -2.4243  -2.3846
    -2.3694  -2.3651  -2.3177  -2.3081  -2.3013  -2.2902  -2.2838  -2.2815
    -2.2415  -2.2331  -2.2133  -2.2074  -2.1880  -2.1818  -2.1774  -2.1612
    -2.1566  -2.1491  -2.1308  -2.1122  -2.0949  -2.0845  -2.0748  -2.0737
    -2.0718  -2.0645  -2.0631  -2.0503  -2.0473  -2.0451  -2.0415  -2.0378
    -2.0363  -2.0321  -2.0262  -2.0133  -2.0074  -2.0063  -2.0026  -1.9988
    -1.9953  -1.9786  -1.9724  -1.9625  -1.9615  -1.9546  -1.9523  -1.9165
    -1.8881  -1.8844  -1.8666  -1.8481  -1.8322  -1.8280  -1.8167  -1.8078
    -1.7957  -1.7873  -1.7841  -1.7809  -1.7776  -1.7766  -1.7729  -1.7428
    -1.7422  -1.7412  -1.7032  -1.6976  -1.6701  -1.6552  -1.6423  -1.6103
    -1.6026  -1.5932  -1.5742  -1.5689  -1.5662  -1.5518  -1.5422  -1.5340
    -1.5301  -1.5289  -1.5251  -1.5244  -1.5222  -1.5210  -1.5065  -1.4999
    -1.4899  -1.4799  -1.4732  -1.4594  -1.4481  -1.4309  -1.4249  -1.4237
    -1.4230  -1.4180  -1.4089  -1.3933  -1.3883  -1.3785  -1.3721  -1.3612
    -1.3544  -1.3440  -1.3368  -1.3176  -1.3113  -1.3067  -1.2995  -1.2721
    -1.2656  -1.2607  -1.2595  -1.2536  -1.2470  -1.2333  -1.2288  -1.2212
    -1.2124  -1.2088  -1.2031  -1.1973  -1.1959  -1.1894  -1.1845  -1.1728
    -1.1674  -1.1650  -1.1628  -1.1525  -1.1462  -1.1421  -1.1385  -1.1017
    -1.0981  -1.0960  -1.0930  -1.0905  -1.0874  -1.0551  -1.0364  -1.0341
    -1.0329  -1.0319  -1.0276  -1.0247  -1.0199  -1.0097  -1.0081  -0.9737
    -0.9729  -0.9662  -0.9643  -0.9448  -0.9430  -0.9332  -0.9063  -0.8957
    -0.8725  -0.8670  -0.8429  -0.8410  -0.8372  -0.8363  -0.8336  -0.8285
    -0.8263  -0.8255  -0.8218  -0.8202  -0.7905  -0.7888  -0.7707  -0.7688
    -0.7645  -0.7640  -0.7613  -0.7535  -0.7453  -0.4763  -0.4569  -0.4008
    -0.3892  -0.3635  -0.2027  -0.1394  -0.1368  -0.0968   0.1823   0.1862
     0.5123   0.5219   0.6091   0.6112   0.6509   0.6534   0.7984   0.8040
     0.9177   0.9226   1.0196   1.6092   1.6232   1.6262   1.6616   1.6700
     1.7141   1.7323   1.7966   1.8009   2.0008   2.0030   2.2432   2.3169
     2.3234   2.3343   2.7136   2.7255   2.7849   2.7884   2.7945   2.7968
     2.9440   2.9471   3.0024   3.0918   3.0990   3.3212   3.3275   3.4543
     3.4837   3.4854   3.7556   3.7596   3.8706   3.8859   3.8888   3.9525
     3.9801   4.0693   4.0757   4.3060   4.3121   4.3996   4.4075   4.5203
     4.5285   4.5468   4.5579   4.7031   5.1306   5.3516   5.3694   5.4456
     5.4547   5.5391   5.6343   5.6380   5.6677   5.7079   5.7408   5.7514
     5.7615   5.7977   5.8044   5.8498   6.0211   6.1007   6.1127   6.1166
     6.1328   6.1417   6.1466   6.1503   6.1567   6.1584   6.1965   6.2320

          k = 0.2500 0.2500-0.2500 (167588 PWs)   bands (ev):

   -19.6223  -7.9042  -6.8147  -6.2887  -6.2860  -5.8586  -5.4489  -5.3569
    -5.3562  -5.1624  -5.1599  -5.0436  -5.0412  -4.9656  -4.9413  -4.8690
    -4.7857  -4.7800  -4.7412  -4.7408  -4.5829  -4.5651  -4.5631  -4.5621
    -4.5554  -4.5008  -4.4987  -4.4887  -4.4875  -4.4511  -4.4384  -4.4373
    -4.3960  -4.3956  -4.3653  -4.3626  -4.3151  -4.3090  -4.3014  -4.2986
    -4.2922  -4.2791  -4.2784  -4.2414  -4.2229  -4.2196  -4.2133  -4.2122
    -4.1821  -4.1331  -4.1172  -4.1156  -4.1144  -4.1116  -4.1030  -4.1008
    -4.0988  -4.0964  -4.0401  -4.0334  -3.9893  -3.9819  -3.9748  -3.9526
    -3.9469  -3.9294  -3.9246  -3.9204  -3.9197  -3.9146  -3.8771  -3.8639
    -3.8560  -3.8513  -3.8409  -3.7469  -3.7456  -3.7392  -3.7242  -3.7022
    -3.6995  -3.6779  -3.6494  -3.6468  -3.6200  -3.6195  -3.6003  -3.5967
    -3.5894  -3.5845  -3.5307  -3.5293  -3.5114  -3.4946  -3.4895  -3.4833
    -3.4822  -3.4746  -3.4559  -3.4524  -3.4182  -3.4165  -3.4021  -3.3928
    -3.3667  -3.3596  -3.3487  -3.3181  -3.3161  -3.2823  -3.2792  -3.2431
    -3.2356  -3.2350  -3.2224  -3.2191  -3.2159  -3.2153  -3.1835  -3.1669
    -3.1299  -3.1277  -3.1188  -3.1107  -3.1094  -3.1073  -3.0852  -3.0843
    -3.0656  -3.0640  -3.0606  -3.0364  -3.0347  -3.0277  -3.0255  -3.0221
    -2.9878  -2.9872  -2.9532  -2.9486  -2.9474  -2.9459  -2.9436  -2.8647
    -2.8602  -2.8556  -2.8528  -2.8495  -2.8487  -2.8453  -2.8445  -2.8425
    -2.8419  -2.8333  -2.8254  -2.8132  -2.8074  -2.8046  -2.8033  -2.7921
    -2.7880  -2.7515  -2.7490  -2.7476  -2.7436  -2.7418  -2.7257  -2.7238
    -2.7181  -2.7161  -2.7124  -2.6614  -2.6548  -2.6511  -2.6480  -2.6446
    -2.6419  -2.6169  -2.5614  -2.5570  -2.5559  -2.5517  -2.5434  -2.5404
    -2.5353  -2.5279  -2.5237  -2.4980  -2.4889  -2.4856  -2.4810  -2.4762
    -2.4755  -2.4420  -2.4402  -2.4325  -2.4270  -2.4264  -2.4243  -2.3846
    -2.3694  -2.3651  -2.3177  -2.3081  -2.3013  -2.2902  -2.2838  -2.2815
    -2.2415  -2.2331  -2.2133  -2.2074  -2.1880  -2.1818  -2.1774  -2.1612
    -2.1566  -2.1491  -2.1308  -2.1122  -2.0949  -2.0845  -2.0748  -2.0737
    -2.0718  -2.0645  -2.0631  -2.0503  -2.0473  -2.0452  -2.0415  -2.0378
    -2.0363  -2.0321  -2.0262  -2.0133  -2.0074  -2.0063  -2.0026  -1.9988
    -1.9953  -1.9786  -1.9724  -1.9625  -1.9615  -1.9546  -1.9523  -1.9165
    -1.8881  -1.8844  -1.8666  -1.8482  -1.8322  -1.8280  -1.8167  -1.8078
    -1.7957  -1.7873  -1.7841  -1.7809  -1.7776  -1.7766  -1.7729  -1.7428
    -1.7422  -1.7412  -1.7032  -1.6976  -1.6701  -1.6552  -1.6423  -1.6103
    -1.6026  -1.5932  -1.5742  -1.5689  -1.5662  -1.5518  -1.5422  -1.5340
    -1.5301  -1.5289  -1.5251  -1.5244  -1.5222  -1.5210  -1.5065  -1.4999
    -1.4899  -1.4799  -1.4732  -1.4594  -1.4481  -1.4309  -1.4249  -1.4236
    -1.4230  -1.4180  -1.4089  -1.3933  -1.3883  -1.3785  -1.3721  -1.3612
    -1.3544  -1.3440  -1.3368  -1.3176  -1.3114  -1.3067  -1.2995  -1.2721
    -1.2656  -1.2606  -1.2595  -1.2536  -1.2470  -1.2333  -1.2288  -1.2212
    -1.2124  -1.2088  -1.2031  -1.1973  -1.1959  -1.1894  -1.1845  -1.1728
    -1.1674  -1.1650  -1.1628  -1.1525  -1.1462  -1.1421  -1.1385  -1.1017
    -1.0981  -1.0960  -1.0930  -1.0905  -1.0874  -1.0551  -1.0364  -1.0341
    -1.0329  -1.0319  -1.0275  -1.0247  -1.0199  -1.0097  -1.0081  -0.9737
    -0.9729  -0.9662  -0.9643  -0.9448  -0.9430  -0.9332  -0.9063  -0.8957
    -0.8725  -0.8669  -0.8429  -0.8410  -0.8372  -0.8363  -0.8336  -0.8285
    -0.8263  -0.8255  -0.8218  -0.8202  -0.7905  -0.7888  -0.7707  -0.7688
    -0.7645  -0.7640  -0.7613  -0.7535  -0.7453  -0.4763  -0.4569  -0.4008
    -0.3892  -0.3635  -0.2027  -0.1394  -0.1368  -0.0968   0.1823   0.1862
     0.5123   0.5219   0.6091   0.6112   0.6509   0.6534   0.7984   0.8040
     0.9177   0.9226   1.0196   1.6092   1.6232   1.6262   1.6616   1.6700
     1.7142   1.7323   1.7966   1.8009   2.0008   2.0030   2.2432   2.3169
     2.3234   2.3343   2.7136   2.7255   2.7849   2.7884   2.7945   2.7968
     2.9440   2.9470   3.0024   3.0918   3.0990   3.3212   3.3275   3.4543
     3.4837   3.4854   3.7557   3.7596   3.8706   3.8859   3.8888   3.9526
     3.9801   4.0693   4.0757   4.3060   4.3121   4.3996   4.4075   4.5203
     4.5285   4.5468   4.5579   4.7033   5.1219   5.3487   5.3657   5.4456
     5.4527   5.5386   5.6352   5.6385   5.6896   5.7220   5.7481   5.7532
     5.7632   5.7990   5.8044   5.8499   6.0487   6.0792   6.1123   6.1168
     6.1340   6.1422   6.1476   6.1558   6.1571   6.1643   6.2118   6.2463

          k =-0.2500-0.2500 0.0833 (167653 PWs)   bands (ev):

   -19.6223  -7.9042  -6.8147  -6.2887  -6.2860  -5.8586  -5.4489  -5.3569
    -5.3562  -5.1624  -5.1599  -5.0436  -5.0412  -4.9656  -4.9413  -4.8690
    -4.7857  -4.7800  -4.7412  -4.7408  -4.5829  -4.5651  -4.5631  -4.5621
    -4.5554  -4.5008  -4.4987  -4.4887  -4.4875  -4.4511  -4.4384  -4.4373
    -4.3960  -4.3956  -4.3652  -4.3626  -4.3151  -4.3090  -4.3014  -4.2986
    -4.2922  -4.2791  -4.2784  -4.2414  -4.2229  -4.2196  -4.2133  -4.2122
    -4.1821  -4.1331  -4.1172  -4.1156  -4.1144  -4.1116  -4.1030  -4.1007
    -4.0988  -4.0964  -4.0401  -4.0334  -3.9893  -3.9819  -3.9748  -3.9526
    -3.9469  -3.9294  -3.9246  -3.9204  -3.9197  -3.9146  -3.8771  -3.8639
    -3.8560  -3.8513  -3.8409  -3.7469  -3.7456  -3.7392  -3.7242  -3.7022
    -3.6995  -3.6779  -3.6494  -3.6468  -3.6200  -3.6195  -3.6003  -3.5967
    -3.5894  -3.5845  -3.5307  -3.5293  -3.5114  -3.4946  -3.4895  -3.4833
    -3.4822  -3.4746  -3.4559  -3.4524  -3.4183  -3.4165  -3.4021  -3.3928
    -3.3667  -3.3596  -3.3487  -3.3181  -3.3161  -3.2823  -3.2792  -3.2431
    -3.2356  -3.2350  -3.2224  -3.2191  -3.2159  -3.2153  -3.1835  -3.1669
    -3.1299  -3.1277  -3.1188  -3.1107  -3.1094  -3.1073  -3.0852  -3.0843
    -3.0656  -3.0640  -3.0606  -3.0364  -3.0347  -3.0277  -3.0255  -3.0221
    -2.9878  -2.9872  -2.9532  -2.9486  -2.9474  -2.9459  -2.9436  -2.8647
    -2.8602  -2.8556  -2.8528  -2.8495  -2.8487  -2.8453  -2.8445  -2.8425
    -2.8419  -2.8333  -2.8254  -2.8132  -2.8074  -2.8046  -2.8033  -2.7921
    -2.7880  -2.7515  -2.7490  -2.7476  -2.7436  -2.7418  -2.7258  -2.7238
    -2.7181  -2.7161  -2.7124  -2.6614  -2.6548  -2.6511  -2.6480  -2.6446
    -2.6419  -2.6169  -2.5614  -2.5570  -2.5559  -2.5517  -2.5434  -2.5404
    -2.5353  -2.5279  -2.5237  -2.4980  -2.4889  -2.4856  -2.4810  -2.4762
    -2.4755  -2.4420  -2.4402  -2.4325  -2.4270  -2.4264  -2.4243  -2.3846
    -2.3694  -2.3651  -2.3177  -2.3081  -2.3013  -2.2902  -2.2838  -2.2815
    -2.2415  -2.2331  -2.2133  -2.2074  -2.1880  -2.1818  -2.1774  -2.1612
    -2.1566  -2.1491  -2.1308  -2.1122  -2.0949  -2.0845  -2.0748  -2.0737
    -2.0718  -2.0645  -2.0631  -2.0503  -2.0473  -2.0451  -2.0415  -2.0378
    -2.0363  -2.0321  -2.0262  -2.0133  -2.0074  -2.0063  -2.0026  -1.9988
    -1.9953  -1.9786  -1.9724  -1.9625  -1.9615  -1.9546  -1.9523  -1.9165
    -1.8881  -1.8844  -1.8666  -1.8481  -1.8322  -1.8280  -1.8167  -1.8078
    -1.7957  -1.7873  -1.7841  -1.7809  -1.7776  -1.7766  -1.7729  -1.7428
    -1.7422  -1.7412  -1.7032  -1.6976  -1.6701  -1.6552  -1.6423  -1.6103
    -1.6026  -1.5932  -1.5742  -1.5689  -1.5662  -1.5518  -1.5422  -1.5340
    -1.5301  -1.5289  -1.5251  -1.5244  -1.5222  -1.5210  -1.5065  -1.4999
    -1.4899  -1.4799  -1.4732  -1.4594  -1.4481  -1.4309  -1.4249  -1.4237
    -1.4230  -1.4180  -1.4089  -1.3933  -1.3883  -1.3785  -1.3721  -1.3612
    -1.3544  -1.3440  -1.3368  -1.3176  -1.3113  -1.3067  -1.2995  -1.2721
    -1.2656  -1.2607  -1.2595  -1.2536  -1.2470  -1.2333  -1.2288  -1.2212
    -1.2124  -1.2088  -1.2031  -1.1973  -1.1959  -1.1894  -1.1845  -1.1728
    -1.1674  -1.1650  -1.1628  -1.1525  -1.1462  -1.1421  -1.1385  -1.1017
    -1.0981  -1.0960  -1.0930  -1.0905  -1.0874  -1.0551  -1.0364  -1.0341
    -1.0329  -1.0319  -1.0276  -1.0247  -1.0199  -1.0097  -1.0081  -0.9737
    -0.9729  -0.9662  -0.9643  -0.9448  -0.9430  -0.9332  -0.9063  -0.8957
    -0.8725  -0.8670  -0.8429  -0.8410  -0.8372  -0.8363  -0.8336  -0.8285
    -0.8263  -0.8255  -0.8218  -0.8202  -0.7905  -0.7888  -0.7707  -0.7688
    -0.7645  -0.7640  -0.7613  -0.7535  -0.7453  -0.4763  -0.4569  -0.4008
    -0.3892  -0.3635  -0.2027  -0.1394  -0.1368  -0.0968   0.1823   0.1862
     0.5123   0.5219   0.6091   0.6112   0.6509   0.6534   0.7984   0.8040
     0.9177   0.9226   1.0196   1.6092   1.6232   1.6262   1.6616   1.6700
     1.7141   1.7323   1.7966   1.8009   2.0008   2.0030   2.2432   2.3169
     2.3234   2.3343   2.7136   2.7255   2.7849   2.7884   2.7945   2.7968
     2.9440   2.9471   3.0024   3.0918   3.0990   3.3212   3.3275   3.4543
     3.4837   3.4854   3.7556   3.7596   3.8706   3.8859   3.8888   3.9525
     3.9801   4.0693   4.0757   4.3060   4.3121   4.3996   4.4075   4.5203
     4.5285   4.5469   4.5579   4.7031   5.1302   5.3515   5.3706   5.4456
     5.4546   5.5356   5.6343   5.6373   5.6721   5.7092   5.7405   5.7516
     5.7616   5.7980   5.8044   5.8499   6.0228   6.1012   6.1112   6.1172
     6.1340   6.1410   6.1462   6.1496   6.1561   6.1583   6.1866   6.2257

          k =-0.2500 0.2500-0.0833 (167653 PWs)   bands (ev):

   -19.6223  -7.9042  -6.8147  -6.2888  -6.2860  -5.8585  -5.4488  -5.3570
    -5.3561  -5.1625  -5.1600  -5.0437  -5.0411  -4.9655  -4.9413  -4.8690
    -4.7858  -4.7799  -4.7413  -4.7407  -4.5829  -4.5648  -4.5631  -4.5621
    -4.5554  -4.5008  -4.4987  -4.4885  -4.4875  -4.4511  -4.4384  -4.4374
    -4.3961  -4.3955  -4.3651  -4.3627  -4.3147  -4.3092  -4.3016  -4.2985
    -4.2923  -4.2791  -4.2784  -4.2416  -4.2232  -4.2196  -4.2131  -4.2122
    -4.1823  -4.1333  -4.1162  -4.1154  -4.1145  -4.1121  -4.1030  -4.1011
    -4.0989  -4.0964  -4.0393  -4.0338  -3.9894  -3.9819  -3.9744  -3.9538
    -3.9467  -3.9294  -3.9253  -3.9204  -3.9198  -3.9146  -3.8771  -3.8639
    -3.8554  -3.8513  -3.8377  -3.7468  -3.7458  -3.7393  -3.7268  -3.7022
    -3.6998  -3.6779  -3.6491  -3.6465  -3.6200  -3.6195  -3.6008  -3.5975
    -3.5894  -3.5846  -3.5308  -3.5293  -3.5095  -3.4946  -3.4894  -3.4830
    -3.4823  -3.4743  -3.4559  -3.4532  -3.4181  -3.4163  -3.4019  -3.3934
    -3.3664  -3.3599  -3.3487  -3.3177  -3.3158  -3.2824  -3.2793  -3.2435
    -3.2356  -3.2350  -3.2225  -3.2197  -3.2159  -3.2153  -3.1835  -3.1670
    -3.1298  -3.1277  -3.1188  -3.1109  -3.1087  -3.1077  -3.0854  -3.0843
    -3.0654  -3.0640  -3.0607  -3.0363  -3.0345  -3.0278  -3.0253  -3.0222
    -2.9876  -2.9870  -2.9535  -2.9489  -2.9475  -2.9459  -2.9436  -2.8649
    -2.8597  -2.8557  -2.8526  -2.8496  -2.8487  -2.8450  -2.8444  -2.8425
    -2.8420  -2.8333  -2.8254  -2.8135  -2.8071  -2.8045  -2.8034  -2.7921
    -2.7876  -2.7517  -2.7489  -2.7477  -2.7438  -2.7419  -2.7258  -2.7239
    -2.7179  -2.7162  -2.7124  -2.6616  -2.6548  -2.6508  -2.6480  -2.6444
    -2.6419  -2.6170  -2.5607  -2.5572  -2.5560  -2.5517  -2.5431  -2.5405
    -2.5350  -2.5281  -2.5236  -2.4994  -2.4880  -2.4859  -2.4806  -2.4765
    -2.4756  -2.4427  -2.4397  -2.4324  -2.4270  -2.4265  -2.4243  -2.3851
    -2.3693  -2.3657  -2.3178  -2.3081  -2.3011  -2.2901  -2.2838  -2.2816
    -2.2417  -2.2332  -2.2131  -2.2073  -2.1876  -2.1821  -2.1774  -2.1612
    -2.1565  -2.1491  -2.1306  -2.1112  -2.0946  -2.0854  -2.0747  -2.0738
    -2.0717  -2.0643  -2.0632  -2.0501  -2.0471  -2.0453  -2.0416  -2.0378
    -2.0363  -2.0320  -2.0266  -2.0136  -2.0074  -2.0062  -2.0024  -1.9988
    -1.9953  -1.9785  -1.9728  -1.9626  -1.9615  -1.9542  -1.9526  -1.9166
    -1.8885  -1.8837  -1.8644  -1.8482  -1.8323  -1.8279  -1.8170  -1.8081
    -1.7960  -1.7872  -1.7837  -1.7807  -1.7776  -1.7766  -1.7732  -1.7432
    -1.7418  -1.7411  -1.7037  -1.6979  -1.6697  -1.6549  -1.6445  -1.6104
    -1.6022  -1.5935  -1.5751  -1.5687  -1.5663  -1.5512  -1.5423  -1.5329
    -1.5301  -1.5289  -1.5253  -1.5244  -1.5220  -1.5210  -1.5061  -1.5000
    -1.4893  -1.4802  -1.4736  -1.4592  -1.4495  -1.4299  -1.4251  -1.4239
    -1.4232  -1.4175  -1.4080  -1.3945  -1.3875  -1.3794  -1.3724  -1.3611
    -1.3539  -1.3436  -1.3371  -1.3182  -1.3112  -1.3073  -1.2988  -1.2706
    -1.2651  -1.2613  -1.2595  -1.2542  -1.2470  -1.2329  -1.2290  -1.2218
    -1.2121  -1.2092  -1.2029  -1.1976  -1.1961  -1.1897  -1.1849  -1.1727
    -1.1672  -1.1649  -1.1628  -1.1517  -1.1471  -1.1422  -1.1384  -1.1017
    -1.0977  -1.0954  -1.0934  -1.0905  -1.0877  -1.0552  -1.0363  -1.0342
    -1.0328  -1.0324  -1.0288  -1.0249  -1.0187  -1.0097  -1.0077  -0.9740
    -0.9727  -0.9663  -0.9643  -0.9448  -0.9429  -0.9333  -0.9067  -0.8957
    -0.8725  -0.8670  -0.8426  -0.8409  -0.8372  -0.8364  -0.8336  -0.8285
    -0.8263  -0.8253  -0.8222  -0.8201  -0.7904  -0.7888  -0.7710  -0.7688
    -0.7644  -0.7640  -0.7620  -0.7524  -0.7453  -0.4762  -0.4569  -0.4015
    -0.3882  -0.3635  -0.2024  -0.1390  -0.1370  -0.0971   0.1817   0.1867
     0.5119   0.5222   0.6093   0.6113   0.6508   0.6540   0.7978   0.8047
     0.9176   0.9225   1.0197   1.6089   1.6231   1.6262   1.6602   1.6700
     1.7135   1.7335   1.7962   1.8018   2.0006   2.0034   2.2431   2.3162
     2.3240   2.3341   2.7129   2.7255   2.7844   2.7892   2.7945   2.7968
     2.9443   2.9469   3.0022   3.0917   3.1002   3.3207   3.3294   3.4543
     3.4831   3.4857   3.7555   3.7602   3.8690   3.8861   3.8890   3.9529
     3.9802   4.0693   4.0757   4.3064   4.3120   4.3984   4.4080   4.5179
     4.5293   4.5458   4.5587   4.7029   5.1308   5.3501   5.3708   5.4447
     5.4559   5.5369   5.6346   5.6381   5.6728   5.7103   5.7382   5.7509
     5.7614   5.7998   5.8042   5.8506   6.0218   6.1016   6.1117   6.1170
     6.1336   6.1421   6.1448   6.1490   6.1546   6.1585   6.1887   6.2234

          k = 0.2500-0.2500-0.0833 (167653 PWs)   bands (ev):

   -19.6223  -7.9042  -6.8147  -6.2888  -6.2860  -5.8585  -5.4488  -5.3570
    -5.3561  -5.1625  -5.1600  -5.0437  -5.0411  -4.9655  -4.9413  -4.8690
    -4.7858  -4.7799  -4.7413  -4.7407  -4.5829  -4.5648  -4.5631  -4.5621
    -4.5554  -4.5008  -4.4987  -4.4885  -4.4875  -4.4511  -4.4384  -4.4374
    -4.3961  -4.3955  -4.3651  -4.3627  -4.3147  -4.3092  -4.3016  -4.2985
    -4.2923  -4.2791  -4.2784  -4.2416  -4.2232  -4.2196  -4.2131  -4.2122
    -4.1823  -4.1333  -4.1162  -4.1154  -4.1145  -4.1121  -4.1030  -4.1011
    -4.0989  -4.0964  -4.0393  -4.0338  -3.9894  -3.9819  -3.9744  -3.9538
    -3.9467  -3.9294  -3.9253  -3.9204  -3.9198  -3.9146  -3.8771  -3.8639
    -3.8554  -3.8513  -3.8377  -3.7468  -3.7458  -3.7393  -3.7268  -3.7022
    -3.6998  -3.6779  -3.6491  -3.6465  -3.6200  -3.6195  -3.6008  -3.5975
    -3.5894  -3.5846  -3.5308  -3.5293  -3.5095  -3.4946  -3.4894  -3.4830
    -3.4823  -3.4743  -3.4559  -3.4532  -3.4181  -3.4163  -3.4019  -3.3934
    -3.3664  -3.3599  -3.3487  -3.3177  -3.3158  -3.2824  -3.2793  -3.2435
    -3.2356  -3.2350  -3.2225  -3.2197  -3.2159  -3.2153  -3.1835  -3.1670
    -3.1298  -3.1277  -3.1188  -3.1109  -3.1087  -3.1077  -3.0854  -3.0843
    -3.0654  -3.0640  -3.0607  -3.0363  -3.0345  -3.0278  -3.0253  -3.0222
    -2.9876  -2.9870  -2.9535  -2.9489  -2.9475  -2.9459  -2.9436  -2.8649
    -2.8597  -2.8557  -2.8526  -2.8496  -2.8487  -2.8450  -2.8444  -2.8425
    -2.8420  -2.8333  -2.8254  -2.8135  -2.8071  -2.8045  -2.8034  -2.7921
    -2.7876  -2.7517  -2.7489  -2.7477  -2.7438  -2.7419  -2.7258  -2.7239
    -2.7179  -2.7162  -2.7124  -2.6616  -2.6548  -2.6508  -2.6480  -2.6444
    -2.6419  -2.6170  -2.5607  -2.5572  -2.5560  -2.5517  -2.5431  -2.5405
    -2.5350  -2.5281  -2.5236  -2.4994  -2.4880  -2.4859  -2.4806  -2.4765
    -2.4756  -2.4427  -2.4397  -2.4324  -2.4270  -2.4265  -2.4243  -2.3851
    -2.3693  -2.3657  -2.3178  -2.3081  -2.3011  -2.2901  -2.2838  -2.2816
    -2.2417  -2.2332  -2.2131  -2.2073  -2.1876  -2.1821  -2.1774  -2.1612
    -2.1565  -2.1491  -2.1306  -2.1112  -2.0946  -2.0854  -2.0747  -2.0738
    -2.0717  -2.0643  -2.0632  -2.0501  -2.0471  -2.0453  -2.0416  -2.0378
    -2.0363  -2.0320  -2.0266  -2.0136  -2.0074  -2.0062  -2.0024  -1.9988
    -1.9953  -1.9785  -1.9728  -1.9626  -1.9615  -1.9542  -1.9526  -1.9166
    -1.8885  -1.8837  -1.8644  -1.8482  -1.8323  -1.8279  -1.8170  -1.8081
    -1.7960  -1.7872  -1.7837  -1.7807  -1.7776  -1.7766  -1.7732  -1.7432
    -1.7418  -1.7411  -1.7037  -1.6979  -1.6697  -1.6549  -1.6445  -1.6104
    -1.6022  -1.5935  -1.5751  -1.5687  -1.5663  -1.5512  -1.5423  -1.5329
    -1.5301  -1.5289  -1.5253  -1.5244  -1.5220  -1.5210  -1.5061  -1.5000
    -1.4893  -1.4802  -1.4736  -1.4592  -1.4495  -1.4299  -1.4251  -1.4239
    -1.4232  -1.4175  -1.4080  -1.3945  -1.3875  -1.3794  -1.3724  -1.3611
    -1.3539  -1.3436  -1.3371  -1.3182  -1.3112  -1.3073  -1.2988  -1.2706
    -1.2651  -1.2613  -1.2595  -1.2542  -1.2470  -1.2329  -1.2290  -1.2218
    -1.2121  -1.2092  -1.2029  -1.1976  -1.1961  -1.1897  -1.1849  -1.1727
    -1.1672  -1.1649  -1.1628  -1.1517  -1.1471  -1.1422  -1.1384  -1.1017
    -1.0977  -1.0954  -1.0934  -1.0905  -1.0877  -1.0552  -1.0363  -1.0342
    -1.0328  -1.0324  -1.0288  -1.0249  -1.0187  -1.0097  -1.0077  -0.9740
    -0.9727  -0.9663  -0.9643  -0.9448  -0.9429  -0.9333  -0.9067  -0.8957
    -0.8725  -0.8670  -0.8426  -0.8409  -0.8372  -0.8364  -0.8336  -0.8285
    -0.8263  -0.8253  -0.8222  -0.8201  -0.7904  -0.7888  -0.7710  -0.7688
    -0.7644  -0.7640  -0.7620  -0.7524  -0.7453  -0.4762  -0.4569  -0.4015
    -0.3882  -0.3635  -0.2024  -0.1390  -0.1370  -0.0971   0.1817   0.1867
     0.5119   0.5222   0.6093   0.6113   0.6508   0.6540   0.7978   0.8047
     0.9176   0.9225   1.0197   1.6089   1.6231   1.6262   1.6602   1.6700
     1.7135   1.7335   1.7962   1.8018   2.0006   2.0034   2.2431   2.3162
     2.3240   2.3341   2.7129   2.7255   2.7844   2.7892   2.7945   2.7968
     2.9443   2.9469   3.0022   3.0917   3.1002   3.3207   3.3294   3.4543
     3.4831   3.4857   3.7555   3.7602   3.8690   3.8861   3.8890   3.9529
     3.9802   4.0693   4.0757   4.3064   4.3120   4.3984   4.4080   4.5179
     4.5293   4.5458   4.5587   4.7029   5.1311   5.3502   5.3697   5.4447
     5.4560   5.5404   5.6344   5.6387   5.6688   5.7087   5.7385   5.7506
     5.7612   5.7995   5.8042   5.8504   6.0200   6.1011   6.1123   6.1163
     6.1332   6.1427   6.1460   6.1494   6.1550   6.1585   6.1990   6.2312

          k =-0.2500 0.2500 0.2500 (167588 PWs)   bands (ev):

   -19.6223  -7.9042  -6.8147  -6.2888  -6.2860  -5.8585  -5.4488  -5.3570
    -5.3561  -5.1625  -5.1599  -5.0437  -5.0411  -4.9655  -4.9413  -4.8690
    -4.7858  -4.7799  -4.7413  -4.7407  -4.5829  -4.5648  -4.5631  -4.5621
    -4.5554  -4.5008  -4.4987  -4.4885  -4.4875  -4.4511  -4.4384  -4.4374
    -4.3961  -4.3955  -4.3651  -4.3627  -4.3147  -4.3092  -4.3016  -4.2985
    -4.2923  -4.2791  -4.2784  -4.2416  -4.2232  -4.2196  -4.2131  -4.2122
    -4.1823  -4.1333  -4.1162  -4.1154  -4.1145  -4.1121  -4.1030  -4.1011
    -4.0989  -4.0964  -4.0393  -4.0338  -3.9894  -3.9819  -3.9744  -3.9538
    -3.9467  -3.9294  -3.9253  -3.9204  -3.9198  -3.9146  -3.8771  -3.8639
    -3.8554  -3.8513  -3.8377  -3.7468  -3.7458  -3.7393  -3.7268  -3.7022
    -3.6998  -3.6779  -3.6491  -3.6465  -3.6200  -3.6195  -3.6008  -3.5975
    -3.5894  -3.5846  -3.5308  -3.5294  -3.5095  -3.4946  -3.4894  -3.4830
    -3.4823  -3.4743  -3.4559  -3.4532  -3.4181  -3.4163  -3.4019  -3.3934
    -3.3664  -3.3599  -3.3487  -3.3177  -3.3158  -3.2824  -3.2793  -3.2435
    -3.2356  -3.2350  -3.2225  -3.2197  -3.2159  -3.2153  -3.1835  -3.1670
    -3.1298  -3.1277  -3.1188  -3.1109  -3.1087  -3.1077  -3.0854  -3.0843
    -3.0654  -3.0640  -3.0607  -3.0363  -3.0345  -3.0278  -3.0253  -3.0222
    -2.9876  -2.9870  -2.9535  -2.9489  -2.9475  -2.9459  -2.9436  -2.8649
    -2.8597  -2.8557  -2.8526  -2.8496  -2.8487  -2.8450  -2.8444  -2.8425
    -2.8420  -2.8333  -2.8254  -2.8135  -2.8071  -2.8045  -2.8034  -2.7921
    -2.7876  -2.7517  -2.7488  -2.7477  -2.7438  -2.7419  -2.7258  -2.7239
    -2.7179  -2.7162  -2.7124  -2.6616  -2.6548  -2.6508  -2.6480  -2.6444
    -2.6419  -2.6170  -2.5607  -2.5572  -2.5560  -2.5517  -2.5431  -2.5405
    -2.5350  -2.5281  -2.5236  -2.4994  -2.4880  -2.4859  -2.4806  -2.4765
    -2.4756  -2.4427  -2.4397  -2.4324  -2.4270  -2.4265  -2.4243  -2.3851
    -2.3693  -2.3657  -2.3178  -2.3081  -2.3011  -2.2901  -2.2838  -2.2816
    -2.2417  -2.2332  -2.2132  -2.2073  -2.1876  -2.1821  -2.1774  -2.1612
    -2.1565  -2.1491  -2.1306  -2.1112  -2.0946  -2.0854  -2.0747  -2.0738
    -2.0717  -2.0643  -2.0632  -2.0501  -2.0471  -2.0453  -2.0416  -2.0378
    -2.0363  -2.0320  -2.0266  -2.0136  -2.0074  -2.0062  -2.0024  -1.9988
    -1.9953  -1.9785  -1.9728  -1.9626  -1.9615  -1.9542  -1.9526  -1.9167
    -1.8885  -1.8837  -1.8644  -1.8482  -1.8323  -1.8279  -1.8170  -1.8081
    -1.7960  -1.7872  -1.7837  -1.7807  -1.7776  -1.7766  -1.7732  -1.7432
    -1.7418  -1.7411  -1.7037  -1.6979  -1.6697  -1.6549  -1.6445  -1.6104
    -1.6022  -1.5935  -1.5751  -1.5687  -1.5663  -1.5512  -1.5423  -1.5329
    -1.5301  -1.5289  -1.5253  -1.5244  -1.5220  -1.5210  -1.5061  -1.5000
    -1.4893  -1.4802  -1.4736  -1.4592  -1.4494  -1.4299  -1.4251  -1.4239
    -1.4232  -1.4175  -1.4080  -1.3945  -1.3875  -1.3794  -1.3724  -1.3611
    -1.3539  -1.3436  -1.3371  -1.3182  -1.3112  -1.3073  -1.2988  -1.2705
    -1.2651  -1.2613  -1.2595  -1.2542  -1.2470  -1.2329  -1.2290  -1.2218
    -1.2121  -1.2092  -1.2029  -1.1976  -1.1961  -1.1897  -1.1849  -1.1727
    -1.1672  -1.1649  -1.1628  -1.1517  -1.1471  -1.1422  -1.1384  -1.1017
    -1.0977  -1.0954  -1.0934  -1.0905  -1.0877  -1.0552  -1.0363  -1.0342
    -1.0328  -1.0324  -1.0288  -1.0249  -1.0187  -1.0097  -1.0077  -0.9740
    -0.9727  -0.9663  -0.9643  -0.9448  -0.9429  -0.9333  -0.9067  -0.8957
    -0.8725  -0.8670  -0.8426  -0.8409  -0.8372  -0.8364  -0.8336  -0.8285
    -0.8263  -0.8253  -0.8222  -0.8201  -0.7904  -0.7888  -0.7710  -0.7688
    -0.7644  -0.7640  -0.7620  -0.7524  -0.7453  -0.4762  -0.4569  -0.4015
    -0.3882  -0.3635  -0.2024  -0.1390  -0.1370  -0.0971   0.1817   0.1868
     0.5119   0.5222   0.6093   0.6113   0.6508   0.6540   0.7978   0.8047
     0.9176   0.9225   1.0197   1.6089   1.6231   1.6262   1.6602   1.6700
     1.7135   1.7335   1.7962   1.8018   2.0006   2.0034   2.2431   2.3162
     2.3240   2.3341   2.7129   2.7255   2.7844   2.7892   2.7945   2.7968
     2.9443   2.9469   3.0022   3.0917   3.1002   3.3207   3.3294   3.4543
     3.4831   3.4857   3.7555   3.7602   3.8690   3.8861   3.8890   3.9530
     3.9803   4.0693   4.0758   4.3064   4.3120   4.3984   4.4080   4.5179
     4.5293   4.5458   4.5587   4.7030   5.1225   5.3476   5.3658   5.4447
     5.4540   5.5404   5.6351   5.6394   5.6902   5.7191   5.7474   5.7530
     5.7650   5.8005   5.8042   5.8505   6.0481   6.0789   6.1137   6.1160
     6.1315   6.1431   6.1475   6.1537   6.1572   6.1663   6.2106   6.2482

     the Fermi energy is     0.8725 ev

!    total energy              =   -7425.25555576 Ry
     Harris-Foulkes estimate   =   -7425.25555577 Ry
     estimated scf accuracy    <          8.0E-09 Ry

     The total energy is the sum of the following terms:

     one-electron contribution =  -48864.33201618 Ry
     hartree contribution      =   24983.08051984 Ry
     xc contribution           =   -3604.29744147 Ry
     ewald contribution        =   20060.29578093 Ry
     smearing contrib. (-TS)   =      -0.00239888 Ry

     convergence has been achieved in  25 iterations

     Writing output data file 2345235.save

     init_run     :     99.36s CPU    108.01s WALL (       1 calls)
     electrons    :   6257.89s CPU   6660.84s WALL (       1 calls)

     Called by init_run:
     wfcinit      :     73.65s CPU     80.89s WALL (       1 calls)
     potinit      :      5.42s CPU      5.81s WALL (       1 calls)

     Called by electrons:
     c_bands      :   5248.10s CPU   5574.98s WALL (      26 calls)
     sum_band     :    672.59s CPU    734.77s WALL (      26 calls)
     v_of_rho     :     75.51s CPU     84.69s WALL (      26 calls)
     newd         :    270.17s CPU    274.31s WALL (      26 calls)
     mix_rho      :      2.26s CPU      2.63s WALL (      26 calls)
     vdW_energy   :      7.90s CPU      8.39s WALL (      26 calls)
     vdW_ffts     :     34.48s CPU     39.45s WALL (      52 calls)
     vdW_v        :     11.02s CPU     11.69s WALL (      26 calls)

     Called by c_bands:
     init_us_2    :     11.68s CPU     11.91s WALL (     318 calls)
     cegterg      :   5184.82s CPU   5508.98s WALL (     156 calls)

     Called by *egterg:
     h_psi        :   2121.92s CPU   2419.22s WALL (     808 calls)
     s_psi        :    329.03s CPU    330.80s WALL (     808 calls)
     g_psi        :      4.27s CPU      4.31s WALL (     646 calls)
     cdiaghg      :   1464.16s CPU   1468.74s WALL (     796 calls)

     Called by h_psi:
     add_vuspsi   :    331.86s CPU    333.70s WALL (     808 calls)

     General routines
     calbec       :    486.90s CPU    488.94s WALL (     964 calls)
     fft          :    103.72s CPU    112.87s WALL (    1716 calls)
     ffts         :      0.95s CPU      1.21s WALL (      52 calls)
     fftw         :   1484.21s CPU   1787.77s WALL (  426744 calls)
     interpolate  :      2.61s CPU      3.28s WALL (      52 calls)
     davcio       :      0.00s CPU      0.15s WALL (       6 calls)

     Parallel routines
     fft_scatter  :   1069.24s CPU   1276.27s WALL (  428512 calls)

     PWSCF        :     1h45m CPU        1h53m WALL


   This run was terminated on:  10:25:20  25Jun2015            

=------------------------------------------------------------------------------=
   JOB DONE.
=------------------------------------------------------------------------------=
