Setting SGE environment for SCC

     Program PWSCF v.5.1.2 starts on 25Jun2015 at  1:43: 7 

     This program is part of the open-source Quantum ESPRESSO suite
     for quantum simulation of materials; please cite
         "P. Giannozzi et al., J. Phys.:Condens. Matter 21 395502 (2009);
          URL http://www.quantum-espresso.org", 
     in publications or presentations arising from this work. More details at
     http://www.quantum-espresso.org/quote

     Parallel version (MPI), running on    32 processors
     R & G space division:  proc/nbgrp/npool/nimage =      32
     Reading input from top.O1.Au62.d.2.6.phi.25.psi.180.in
Warning: card &IONS ignored
Warning: card / ignored
Warning: card &CELL ignored
Warning: card / ignored

     Current dimensions of program PWSCF are:
     Max number of different atomic species (ntypx) = 10
     Max number of k-points (npk) =  40000
     Max angular momentum in pseudopotentials (lmaxx) =  3

     IMPORTANT: XC functional enforced from input :
     Exchange-correlation      = VDW-DF ( 1  4  4  0 1 0)
     Any further DFT definition will be discarded
     Please, verify this is what you really want


     Subspace diagonalization in iterative solution of the eigenvalue problem:
     a serial algorithm will be used


     Parallelization info
     --------------------
     sticks:   dense  smooth     PW     G-vecs:    dense   smooth      PW
     Min         578     289     74               118518    41891    5486
     Max         579     290     75               118533    41932    5497
     Sum       18505    9265   2385              3792731  1341081  175711


     Title: 
     top.O1.Au62.d.2.6.phi.25.psi.180                                           


     bravais-lattice index     =            8
     lattice parameter (alat)  =      24.1233  a.u.
     unit-cell volume          =   28076.2361 (a.u.)^3
     number of atoms/cell      =           75
     number of atomic types    =            3
     number of electrons       =       800.00
     number of Kohn-Sham states=          480
     kinetic-energy cutoff     =      50.0000  Ry
     charge density cutoff     =     400.0000  Ry
     convergence threshold     =      1.0E-08
     mixing beta               =       0.7000
     number of iterations used =            8  plain     mixing
     Exchange-correlation      = VDW-DF ( 1  4  4  0 1 0)

     celldm(1)=  24.123277  celldm(2)=   1.000000  celldm(3)=   2.000000
     celldm(4)=   0.000000  celldm(5)=   0.000000  celldm(6)=   0.000000

     crystal axes: (cart. coord. in units of alat)
               a(1) = (   1.000000   0.000000   0.000000 )  
               a(2) = (   0.000000   1.000000   0.000000 )  
               a(3) = (   0.000000   0.000000   2.000000 )  

     reciprocal axes: (cart. coord. in units 2 pi/alat)
               b(1) = (  1.000000  0.000000  0.000000 )  
               b(2) = (  0.000000  1.000000  0.000000 )  
               b(3) = (  0.000000  0.000000  0.500000 )  


     PseudoPot. # 1 for Au read from file:
     /home/scc/andrejb/qe/pseudo/Au.pbe-nd-van.UPF
     MD5 check sum: 458681b50f36d87ef23c61b04bba420a
     Pseudo is Ultrasoft + core correction, Zval = 11.0
     Generated by new atomic code, or converted to UPF format
     Using radial grid of  985 points,  3 beta functions with: 
                l(1) =   1
                l(2) =   2
                l(3) =   2
     Q(r) pseudized with  8 coefficients,  rinner =    1.100   1.100   1.100
                                                       1.100   1.100

     PseudoPot. # 2 for H  read from file:
     /home/scc/andrejb/qe/pseudo/H.pbe-van_ak.UPF
     MD5 check sum: 403db7282739603aa925980fa9b8608d
     Pseudo is Ultrasoft, Zval =  1.0
     Generated by new atomic code, or converted to UPF format
     Using radial grid of  615 points,  1 beta functions with: 
                l(1) =   0
     Q(r) pseudized with  8 coefficients,  rinner =    0.800

     PseudoPot. # 3 for O  read from file:
     /home/scc/andrejb/qe/pseudo/O.pbe-van_ak.UPF
     MD5 check sum: 4b8c549914a63cae506c6ff22b5af4fe
     Pseudo is Ultrasoft, Zval =  6.0
     Generated by new atomic code, or converted to UPF format
     Using radial grid of  737 points,  4 beta functions with: 
                l(1) =   0
                l(2) =   0
                l(3) =   1
                l(4) =   1
     Q(r) pseudized with  8 coefficients,  rinner =    0.800   0.800   0.800


     vdW kernel table read from file vdW_kernel_table
     MD5 check sum: 48e77a2e26edf626eeb0eaa751ad5cac

     atomic species   valence    mass     pseudopotential
        Au            11.00   196.96657     Au( 1.00)
        H              1.00     1.01000     H ( 1.00)
        O              6.00    16.00000     O ( 1.00)

     No symmetry found



   Cartesian axes

     site n.     atom                  positions (alat units)
         1           O   tau(   1) = (   0.4998324   0.3332216   0.7029927  )
         2           H   tau(   2) = (   0.4742046   0.3888446   0.6574988  )
         3           H   tau(   3) = (   0.5246755   0.2792689   0.6551350  )
         4           Au  tau(   4) = (   0.0000000   0.0000000   0.0000000  )
         5           Au  tau(   5) = (   0.3332217   0.0000000   0.0000000  )
         6           Au  tau(   6) = (   0.6664435   0.0000000   0.0000000  )
         7           Au  tau(   7) = (   0.1666109   0.1666109   0.0000000  )
         8           Au  tau(   8) = (   0.4998326   0.1666109   0.0000000  )
         9           Au  tau(   9) = (   0.8330542   0.1666109   0.0000000  )
        10           Au  tau(  10) = (   0.0000000   0.3332217   0.0000000  )
        11           Au  tau(  11) = (   0.3332217   0.3332217   0.0000000  )
        12           Au  tau(  12) = (   0.6664435   0.3332217   0.0000000  )
        13           Au  tau(  13) = (   0.1666109   0.4998326   0.0000000  )
        14           Au  tau(  14) = (   0.4998326   0.4998326   0.0000000  )
        15           Au  tau(  15) = (   0.8330542   0.4998326   0.0000000  )
        16           Au  tau(  16) = (   0.0000000   0.6664435   0.0000000  )
        17           Au  tau(  17) = (   0.3332217   0.6664435   0.0000000  )
        18           Au  tau(  18) = (   0.6664435   0.6664435   0.0000000  )
        19           Au  tau(  19) = (   0.1666109   0.8330542   0.0000000  )
        20           Au  tau(  20) = (   0.4998326   0.8330542   0.0000000  )
        21           Au  tau(  21) = (   0.8330542   0.8330542   0.0000000  )
        22           Au  tau(  22) = (   0.1666109   0.0000000   0.1666109  )
        23           Au  tau(  23) = (   0.4998326   0.0000000   0.1666109  )
        24           Au  tau(  24) = (   0.8330542   0.0000000   0.1666109  )
        25           Au  tau(  25) = (   0.0000000   0.1666109   0.1666109  )
        26           Au  tau(  26) = (   0.3332217   0.1666109   0.1666109  )
        27           Au  tau(  27) = (   0.6664435   0.1666109   0.1666109  )
        28           Au  tau(  28) = (   0.1666109   0.3332217   0.1666109  )
        29           Au  tau(  29) = (   0.4998326   0.3332217   0.1666109  )
        30           Au  tau(  30) = (   0.8330542   0.3332217   0.1666109  )
        31           Au  tau(  31) = (   0.0000000   0.4998326   0.1666109  )
        32           Au  tau(  32) = (   0.3332217   0.4998326   0.1666109  )
        33           Au  tau(  33) = (   0.6664435   0.4998326   0.1666109  )
        34           Au  tau(  34) = (   0.1666109   0.6664435   0.1666109  )
        35           Au  tau(  35) = (   0.4998326   0.6664435   0.1666109  )
        36           Au  tau(  36) = (   0.8330542   0.6664435   0.1666109  )
        37           Au  tau(  37) = (   0.0000000   0.8330542   0.1666109  )
        38           Au  tau(  38) = (   0.3332217   0.8330542   0.1666109  )
        39           Au  tau(  39) = (   0.6664435   0.8330542   0.1666109  )
        40           Au  tau(  40) = (  -0.0000182  -0.0000182   0.3335478  )
        41           Au  tau(  41) = (   0.3332215  -0.0000181   0.3335472  )
        42           Au  tau(  42) = (   0.6664447  -0.0000183   0.3335481  )
        43           Au  tau(  43) = (  -0.0000181   0.3332215   0.3335472  )
        44           Au  tau(  44) = (   0.3332215   0.3332215   0.3335468  )
        45           Au  tau(  45) = (   0.6664445   0.3332215   0.3335478  )
        46           Au  tau(  46) = (  -0.0000183   0.6664447   0.3335481  )
        47           Au  tau(  47) = (   0.3332215   0.6664445   0.3335478  )
        48           Au  tau(  48) = (   0.6664446   0.6664446   0.3335486  )
        49           Au  tau(  49) = (   0.1666097   0.1666097   0.3335483  )
        50           Au  tau(  50) = (   0.4998320   0.1666098   0.3335477  )
        51           Au  tau(  51) = (   0.8330732   0.1666096   0.3335481  )
        52           Au  tau(  52) = (   0.1666098   0.4998320   0.3335477  )
        53           Au  tau(  53) = (   0.4998321   0.4998321   0.3335470  )
        54           Au  tau(  54) = (   0.8330730   0.4998322   0.3335474  )
        55           Au  tau(  55) = (   0.1666096   0.8330732   0.3335481  )
        56           Au  tau(  56) = (   0.4998322   0.8330730   0.3335474  )
        57           Au  tau(  57) = (   0.8330731   0.8330731   0.3335478  )
        58           Au  tau(  58) = (   0.1666104  -0.0000111   0.4993095  )
        59           Au  tau(  59) = (   0.4998323  -0.0000112   0.4993099  )
        60           Au  tau(  60) = (   0.8330661  -0.0000111   0.4993009  )
        61           Au  tau(  61) = (  -0.0000111   0.1666104   0.4993095  )
        62           Au  tau(  62) = (   0.3332214   0.1666106   0.4993185  )
        63           Au  tau(  63) = (   0.6664437   0.1666106   0.4993187  )
        64           Au  tau(  64) = (   0.1666106   0.3332214   0.4993185  )
        65           Au  tau(  65) = (   0.4998324   0.3332216   0.4993185  )
        66           Au  tau(  66) = (   0.8330659   0.3332215   0.4993103  )
        67           Au  tau(  67) = (  -0.0000112   0.4998323   0.4993099  )
        68           Au  tau(  68) = (   0.3332216   0.4998324   0.4993185  )
        69           Au  tau(  69) = (   0.6664436   0.4998325   0.4993187  )
        70           Au  tau(  70) = (   0.1666106   0.6664437   0.4993187  )
        71           Au  tau(  71) = (   0.4998325   0.6664436   0.4993187  )
        72           Au  tau(  72) = (   0.8330658   0.6664438   0.4993102  )
        73           Au  tau(  73) = (  -0.0000111   0.8330661   0.4993009  )
        74           Au  tau(  74) = (   0.3332215   0.8330659   0.4993103  )
        75           Au  tau(  75) = (   0.6664438   0.8330658   0.4993102  )

     number of k points=     6  Marzari-Vanderbilt smearing, width (Ry)=  0.0200
                       cart. coord. in units 2pi/alat
        k(    1) = (   0.2500000   0.2500000   0.0833333), wk =   0.3333333
        k(    2) = (   0.2500000   0.2500000  -0.2500000), wk =   0.3333333
        k(    3) = (  -0.2500000  -0.2500000   0.0833333), wk =   0.3333333
        k(    4) = (  -0.2500000   0.2500000  -0.0833333), wk =   0.3333333
        k(    5) = (   0.2500000  -0.2500000  -0.0833333), wk =   0.3333333
        k(    6) = (  -0.2500000   0.2500000   0.2500000), wk =   0.3333333

     Dense  grid:  3792731 G-vectors     FFT dimensions: ( 160, 160, 320)

     Smooth grid:  1341081 G-vectors     FFT dimensions: ( 120, 120, 225)

     Largest allocated arrays     est. size (Mb)     dimensions
        Kohn-Sham Wavefunctions        38.58 Mb     (    5267,  480)
        NL pseudopotentials            76.03 Mb     (    5267,  946)
        Each V/rho on FFT grid          3.91 Mb     (  256000)
        Each G-vector array             0.90 Mb     (  118520)
        G-vector shells                 0.08 Mb     (   10286)
     Largest temporary arrays     est. size (Mb)     dimensions
        Auxiliary wavefunctions       154.31 Mb     (    5267, 1920)
        Each subspace H/S matrix       56.25 Mb     (    1920, 1920)
        Each <psi_i|beta_j> matrix      6.93 Mb     (     946,  480)
        Arrays for rho mixing          31.25 Mb     (  256000,    8)

     Initial potential from superposition of free atoms
     Check: negative starting charge=   -1.945214

     starting charge  799.16392, renormalised to  800.00000

     negative rho (up, down):  1.947E+00 0.000E+00


     ************************************************************************
     *
     * You are using vdW-DF for exchange-correlation in this calculation.
     * Please cite the following three references that made this development
     * possible:
     *
     *   M. Dion, H. Rydberg, E. Schroder, D. C. Langreth, and
     *   B. I. Lundqvist, Phys. Rev. Lett. 92, 246401 (2004).
     *
     *   T. Thonhauser, V. R. Cooper, S. Li, A. Puzder, P. Hyldgaard, and
     *   D. C. Langreth, Phys. Rev. B 76, 125112 (2007).
     *
     *   G. Roman-Perez and J. M. Soler, Phys. Rev. Lett. 103, 096102 (2009).
     *
     *
     * If you are using vdW-DF2, please also cite:
     *
     *   K. Lee, E. D. Murray, L. Kong, B. I. Lundqvist, and
     *   D. C. Langreth, Phys. Rev. B 82, 081101(R) (2010).
     *
     *
     * If you are calculating the stress with vdW-DF, please also cite:
     *
     *   R. Sabatini, E. Kucukbenli, B. Kolb, T. Thonhauser, and
     *   S. de Gironcoli, J. Phys.: Condens. Matter 24, 424209 (2012).
     *
     ************************************************************************

     Carrying out vdW-DF run using the following parameters:

     Nqs =      20    Nr_points =    1024   r_max =   100.000
     q_mesh =
               0.00001000     0.04494208     0.09755937     0.15916263
               0.23128650     0.31572767     0.41458969     0.53033537
               0.66584808     0.82450364     1.01025438     1.22772762
               1.48234092     1.78043706     2.12944203     2.53805004
               3.01644009     3.57652955     4.23227104     5.00000000

     Gradients computed in reciprocal space

     ************************************************************************


     Starting wfc are  654 randomized atomic wfcs

     total cpu time spent up to now is       98.3 secs

     Self-consistent Calculation

     iteration #  1     ecut=    50.00 Ry     beta=0.70
     Davidson diagonalization with overlap
     ethr =  1.00E-02,  avg # of iterations =  3.0

     Threshold (ethr) on eigenvalues was too large:
     Diagonalizing with lowered threshold

     Davidson diagonalization with overlap
     ethr =  4.07E-04,  avg # of iterations =  2.0

     negative rho (up, down):  1.947E+00 0.000E+00

     total cpu time spent up to now is      467.2 secs

     total energy              =   -7423.06574999 Ry
     Harris-Foulkes estimate   =   -7426.00582117 Ry
     estimated scf accuracy    <       3.63705277 Ry

     iteration #  2     ecut=    50.00 Ry     beta=0.70
     Davidson diagonalization with overlap
     ethr =  4.55E-04,  avg # of iterations = 11.2

     negative rho (up, down):  1.943E+00 0.000E+00

     total cpu time spent up to now is     1195.4 secs

     total energy              =   -7415.67990945 Ry
     Harris-Foulkes estimate   =   -7432.30756247 Ry
     estimated scf accuracy    <      85.55770906 Ry

     iteration #  3     ecut=    50.00 Ry     beta=0.70
     Davidson diagonalization with overlap
     ethr =  4.55E-04,  avg # of iterations =  6.0

     negative rho (up, down):  1.953E+00 0.000E+00

     total cpu time spent up to now is     1625.7 secs

     total energy              =   -7424.03566287 Ry
     Harris-Foulkes estimate   =   -7425.83147654 Ry
     estimated scf accuracy    <       7.57011374 Ry

     iteration #  4     ecut=    50.00 Ry     beta=0.70
     Davidson diagonalization with overlap
     ethr =  4.55E-04,  avg # of iterations =  5.0

     negative rho (up, down):  1.956E+00 0.000E+00

     total cpu time spent up to now is     1857.7 secs

     total energy              =   -7424.76572837 Ry
     Harris-Foulkes estimate   =   -7425.67862124 Ry
     estimated scf accuracy    <       5.16719108 Ry

     iteration #  5     ecut=    50.00 Ry     beta=0.70
     Davidson diagonalization with overlap
     ethr =  4.55E-04,  avg # of iterations =  5.2

     negative rho (up, down):  1.962E+00 0.000E+00

     total cpu time spent up to now is     2100.4 secs

     total energy              =   -7425.04225420 Ry
     Harris-Foulkes estimate   =   -7425.53611589 Ry
     estimated scf accuracy    <       3.59568041 Ry

     iteration #  6     ecut=    50.00 Ry     beta=0.70
     Davidson diagonalization with overlap
     ethr =  4.49E-04,  avg # of iterations =  2.3

     negative rho (up, down):  1.966E+00 0.000E+00

     total cpu time spent up to now is     2295.5 secs

     total energy              =   -7425.23280111 Ry
     Harris-Foulkes estimate   =   -7425.29899725 Ry
     estimated scf accuracy    <       0.24728171 Ry

     iteration #  7     ecut=    50.00 Ry     beta=0.70
     Davidson diagonalization with overlap
     ethr =  3.09E-05,  avg # of iterations =  4.8

     negative rho (up, down):  1.970E+00 0.000E+00

     total cpu time spent up to now is     2533.8 secs

     total energy              =   -7425.24265526 Ry
     Harris-Foulkes estimate   =   -7425.29057573 Ry
     estimated scf accuracy    <       0.25646223 Ry

     iteration #  8     ecut=    50.00 Ry     beta=0.70
     Davidson diagonalization with overlap
     ethr =  3.09E-05,  avg # of iterations =  3.0

     negative rho (up, down):  1.971E+00 0.000E+00

     total cpu time spent up to now is     2730.1 secs

     total energy              =   -7425.25192302 Ry
     Harris-Foulkes estimate   =   -7425.27112925 Ry
     estimated scf accuracy    <       0.08189772 Ry

     iteration #  9     ecut=    50.00 Ry     beta=0.70
     Davidson diagonalization with overlap
     ethr =  1.02E-05,  avg # of iterations =  7.0

     negative rho (up, down):  1.972E+00 0.000E+00

     total cpu time spent up to now is     2990.8 secs

     total energy              =   -7425.25313137 Ry
     Harris-Foulkes estimate   =   -7425.26295418 Ry
     estimated scf accuracy    <       0.03450117 Ry

     iteration # 10     ecut=    50.00 Ry     beta=0.70
     Davidson diagonalization with overlap
     c_bands:  1 eigenvalues not converged
     c_bands:  2 eigenvalues not converged
     c_bands:  1 eigenvalues not converged
     c_bands:  1 eigenvalues not converged
     ethr =  4.31E-06,  avg # of iterations = 14.5

     negative rho (up, down):  1.972E+00 0.000E+00

     total cpu time spent up to now is     3335.3 secs

     total energy              =   -7425.25464883 Ry
     Harris-Foulkes estimate   =   -7425.25751591 Ry
     estimated scf accuracy    <       0.00908807 Ry

     iteration # 11     ecut=    50.00 Ry     beta=0.70
     Davidson diagonalization with overlap
     c_bands:  3 eigenvalues not converged
     ethr =  1.14E-06,  avg # of iterations =  6.5

     negative rho (up, down):  1.973E+00 0.000E+00

     total cpu time spent up to now is     3582.1 secs

     total energy              =   -7425.25506064 Ry
     Harris-Foulkes estimate   =   -7425.25618372 Ry
     estimated scf accuracy    <       0.00375089 Ry

     iteration # 12     ecut=    50.00 Ry     beta=0.70
     Davidson diagonalization with overlap
     ethr =  4.69E-07,  avg # of iterations =  3.0

     negative rho (up, down):  1.974E+00 0.000E+00

     total cpu time spent up to now is     3780.8 secs

     total energy              =   -7425.25487655 Ry
     Harris-Foulkes estimate   =   -7425.25557098 Ry
     estimated scf accuracy    <       0.00125636 Ry

     iteration # 13     ecut=    50.00 Ry     beta=0.70
     Davidson diagonalization with overlap
     ethr =  1.57E-07,  avg # of iterations =  5.2

     negative rho (up, down):  1.974E+00 0.000E+00

     total cpu time spent up to now is     4115.0 secs

     total energy              =   -7425.25426796 Ry
     Harris-Foulkes estimate   =   -7425.25638363 Ry
     estimated scf accuracy    <       0.01076433 Ry

     iteration # 14     ecut=    50.00 Ry     beta=0.70
     Davidson diagonalization with overlap
     ethr =  1.57E-07,  avg # of iterations =  3.0

     negative rho (up, down):  1.974E+00 0.000E+00

     total cpu time spent up to now is     4369.1 secs

     total energy              =   -7425.25522242 Ry
     Harris-Foulkes estimate   =   -7425.25537194 Ry
     estimated scf accuracy    <       0.00057994 Ry

     iteration # 15     ecut=    50.00 Ry     beta=0.70
     Davidson diagonalization with overlap
     ethr =  7.25E-08,  avg # of iterations =  2.0

     negative rho (up, down):  1.974E+00 0.000E+00

     total cpu time spent up to now is     4557.3 secs

     total energy              =   -7425.25526371 Ry
     Harris-Foulkes estimate   =   -7425.25534115 Ry
     estimated scf accuracy    <       0.00033250 Ry

     iteration # 16     ecut=    50.00 Ry     beta=0.70
     Davidson diagonalization with overlap
     ethr =  4.16E-08,  avg # of iterations =  2.0

     negative rho (up, down):  1.974E+00 0.000E+00

     total cpu time spent up to now is     4758.4 secs

     total energy              =   -7425.25520128 Ry
     Harris-Foulkes estimate   =   -7425.25543631 Ry
     estimated scf accuracy    <       0.00203207 Ry

     iteration # 17     ecut=    50.00 Ry     beta=0.70
     Davidson diagonalization with overlap
     ethr =  4.16E-08,  avg # of iterations =  2.0

     negative rho (up, down):  1.974E+00 0.000E+00

     total cpu time spent up to now is     4957.2 secs

     total energy              =   -7425.25531315 Ry
     Harris-Foulkes estimate   =   -7425.25531835 Ry
     estimated scf accuracy    <       0.00001489 Ry

     iteration # 18     ecut=    50.00 Ry     beta=0.70
     Davidson diagonalization with overlap
     ethr =  1.86E-09,  avg # of iterations =  3.0

     negative rho (up, down):  1.974E+00 0.000E+00

     total cpu time spent up to now is     5189.3 secs

     total energy              =   -7425.25531543 Ry
     Harris-Foulkes estimate   =   -7425.25531897 Ry
     estimated scf accuracy    <       0.00001747 Ry

     iteration # 19     ecut=    50.00 Ry     beta=0.70
     Davidson diagonalization with overlap
     ethr =  1.86E-09,  avg # of iterations =  2.0

     negative rho (up, down):  1.974E+00 0.000E+00

     total cpu time spent up to now is     5393.1 secs

     total energy              =   -7425.25531697 Ry
     Harris-Foulkes estimate   =   -7425.25531776 Ry
     estimated scf accuracy    <       0.00000284 Ry

     iteration # 20     ecut=    50.00 Ry     beta=0.70
     Davidson diagonalization with overlap
     ethr =  3.55E-10,  avg # of iterations =  2.0

     negative rho (up, down):  1.974E+00 0.000E+00

     total cpu time spent up to now is     5587.8 secs

     total energy              =   -7425.25531734 Ry
     Harris-Foulkes estimate   =   -7425.25531762 Ry
     estimated scf accuracy    <       0.00000111 Ry

     iteration # 21     ecut=    50.00 Ry     beta=0.70
     Davidson diagonalization with overlap
     ethr =  1.39E-10,  avg # of iterations =  2.0

     negative rho (up, down):  1.974E+00 0.000E+00

     total cpu time spent up to now is     5780.0 secs

     total energy              =   -7425.25531747 Ry
     Harris-Foulkes estimate   =   -7425.25531755 Ry
     estimated scf accuracy    <       0.00000031 Ry

     iteration # 22     ecut=    50.00 Ry     beta=0.70
     Davidson diagonalization with overlap
     ethr =  3.89E-11,  avg # of iterations =  3.0

     negative rho (up, down):  1.974E+00 0.000E+00

     total cpu time spent up to now is     5992.6 secs

     total energy              =   -7425.25531751 Ry
     Harris-Foulkes estimate   =   -7425.25531756 Ry
     estimated scf accuracy    <       0.00000015 Ry

     iteration # 23     ecut=    50.00 Ry     beta=0.70
     Davidson diagonalization with overlap
     ethr =  1.84E-11,  avg # of iterations =  3.0

     negative rho (up, down):  1.974E+00 0.000E+00

     total cpu time spent up to now is     6198.8 secs

     total energy              =   -7425.25531751 Ry
     Harris-Foulkes estimate   =   -7425.25531755 Ry
     estimated scf accuracy    <       0.00000013 Ry

     iteration # 24     ecut=    50.00 Ry     beta=0.70
     Davidson diagonalization with overlap
     ethr =  1.68E-11,  avg # of iterations =  2.0

     negative rho (up, down):  1.974E+00 0.000E+00

     total cpu time spent up to now is     6392.9 secs

     total energy              =   -7425.25531754 Ry
     Harris-Foulkes estimate   =   -7425.25531754 Ry
     estimated scf accuracy    <       0.00000005 Ry

     iteration # 25     ecut=    50.00 Ry     beta=0.70
     Davidson diagonalization with overlap
     ethr =  5.85E-12,  avg # of iterations =  2.0

     negative rho (up, down):  1.974E+00 0.000E+00

     total cpu time spent up to now is     6584.6 secs

     total energy              =   -7425.25531755 Ry
     Harris-Foulkes estimate   =   -7425.25531755 Ry
     estimated scf accuracy    <       0.00000003 Ry

     iteration # 26     ecut=    50.00 Ry     beta=0.70
     Davidson diagonalization with overlap
     ethr =  3.83E-12,  avg # of iterations =  2.0

     negative rho (up, down):  1.974E+00 0.000E+00

     total cpu time spent up to now is     6777.7 secs

     End of self-consistent calculation

          k = 0.2500 0.2500 0.0833 (167653 PWs)   bands (ev):

   -19.7802  -7.6212  -6.9016  -6.3750  -6.3708  -5.9436  -5.5462  -5.4449
    -5.4390  -5.2457  -5.2439  -5.1534  -5.1255  -5.0469  -5.0323  -4.9546
    -4.8668  -4.8658  -4.8340  -4.8226  -4.6840  -4.6647  -4.6454  -4.6442
    -4.6370  -4.6173  -4.5826  -4.5752  -4.5698  -4.5534  -4.5328  -4.5204
    -4.4883  -4.4776  -4.4459  -4.4437  -4.4257  -4.3937  -4.3910  -4.3813
    -4.3794  -4.3736  -4.3602  -4.3465  -4.3183  -4.3025  -4.2987  -4.2940
    -4.2923  -4.2587  -4.2143  -4.1974  -4.1965  -4.1922  -4.1892  -4.1819
    -4.1798  -4.1780  -4.1537  -4.1186  -4.1140  -4.0642  -4.0531  -4.0493
    -4.0272  -4.0254  -4.0033  -4.0017  -3.9992  -3.9974  -3.9895  -3.9478
    -3.9392  -3.9356  -3.9336  -3.8318  -3.8285  -3.8213  -3.8165  -3.7901
    -3.7809  -3.7564  -3.7344  -3.7250  -3.7016  -3.6990  -3.6830  -3.6817
    -3.6726  -3.6675  -3.6123  -3.6107  -3.6045  -3.5742  -3.5724  -3.5706
    -3.5643  -3.5638  -3.5388  -3.5381  -3.5028  -3.4938  -3.4872  -3.4802
    -3.4507  -3.4441  -3.4325  -3.4027  -3.3991  -3.3649  -3.3617  -3.3286
    -3.3176  -3.3156  -3.3060  -3.3043  -3.2972  -3.2951  -3.2685  -3.2479
    -3.2124  -3.2095  -3.2002  -3.1912  -3.1897  -3.1851  -3.1683  -3.1667
    -3.1470  -3.1449  -3.1432  -3.1186  -3.1181  -3.1105  -3.1089  -3.1034
    -3.0694  -3.0687  -3.0382  -3.0321  -3.0308  -3.0286  -3.0252  -2.9477
    -2.9440  -2.9386  -2.9368  -2.9319  -2.9310  -2.9285  -2.9247  -2.9236
    -2.9232  -2.9151  -2.9071  -2.8961  -2.8906  -2.8859  -2.8802  -2.8742
    -2.8722  -2.8362  -2.8299  -2.8291  -2.8261  -2.8241  -2.8080  -2.8060
    -2.8010  -2.7992  -2.7938  -2.7464  -2.7388  -2.7355  -2.7313  -2.7273
    -2.7199  -2.7000  -2.6450  -2.6410  -2.6357  -2.6331  -2.6248  -2.6228
    -2.6173  -2.6094  -2.6062  -2.5827  -2.5751  -2.5701  -2.5666  -2.5602
    -2.5583  -2.5255  -2.5239  -2.5191  -2.5126  -2.5075  -2.5060  -2.4771
    -2.4562  -2.4396  -2.4040  -2.3915  -2.3835  -2.3776  -2.3660  -2.3639
    -2.3283  -2.3159  -2.2966  -2.2944  -2.2733  -2.2634  -2.2587  -2.2444
    -2.2391  -2.2319  -2.2076  -2.1983  -2.1783  -2.1693  -2.1581  -2.1552
    -2.1538  -2.1473  -2.1467  -2.1323  -2.1291  -2.1277  -2.1242  -2.1205
    -2.1173  -2.1145  -2.1107  -2.0959  -2.0896  -2.0871  -2.0855  -2.0806
    -2.0772  -2.0614  -2.0555  -2.0441  -2.0438  -2.0350  -2.0293  -1.9959
    -1.9683  -1.9648  -1.9404  -1.9309  -1.9188  -1.9103  -1.9049  -1.8916
    -1.8796  -1.8710  -1.8674  -1.8645  -1.8590  -1.8579  -1.8535  -1.8246
    -1.8229  -1.8192  -1.7882  -1.7807  -1.7498  -1.7399  -1.7344  -1.6923
    -1.6821  -1.6724  -1.6595  -1.6486  -1.6474  -1.6366  -1.6256  -1.6155
    -1.6132  -1.6114  -1.6066  -1.6050  -1.6039  -1.6018  -1.5875  -1.5807
    -1.5645  -1.5599  -1.5566  -1.5444  -1.5392  -1.5108  -1.5078  -1.5051
    -1.5048  -1.4978  -1.4869  -1.4752  -1.4653  -1.4612  -1.4524  -1.4444
    -1.4262  -1.4219  -1.4157  -1.4026  -1.3920  -1.3898  -1.3772  -1.3506
    -1.3468  -1.3415  -1.3407  -1.3377  -1.3229  -1.3136  -1.3110  -1.3056
    -1.2928  -1.2906  -1.2849  -1.2798  -1.2784  -1.2678  -1.2661  -1.2556
    -1.2467  -1.2461  -1.2427  -1.2322  -1.2246  -1.2234  -1.2202  -1.1842
    -1.1769  -1.1756  -1.1720  -1.1709  -1.1692  -1.1389  -1.1184  -1.1157
    -1.1149  -1.1136  -1.1113  -1.1070  -1.1013  -1.0907  -1.0838  -1.0576
    -1.0482  -1.0479  -1.0434  -1.0262  -1.0255  -1.0152  -0.9909  -0.9769
    -0.9547  -0.9493  -0.9244  -0.9229  -0.9198  -0.9185  -0.9144  -0.9090
    -0.9081  -0.9064  -0.9023  -0.8999  -0.8721  -0.8712  -0.8546  -0.8514
    -0.8467  -0.8445  -0.8434  -0.8273  -0.8171  -0.5615  -0.5370  -0.4840
    -0.4588  -0.4440  -0.2833  -0.2203  -0.2194  -0.1722   0.0966   0.1093
     0.4291   0.4476   0.5263   0.5294   0.5693   0.5723   0.7117   0.7313
     0.8347   0.8404   0.9403   1.5278   1.5399   1.5422   1.5712   1.5890
     1.6315   1.6525   1.7119   1.7260   1.9172   1.9218   2.1612   2.2346
     2.2417   2.2520   2.6318   2.6437   2.7002   2.7068   2.7125   2.7144
     2.8612   2.8643   2.9204   3.0078   3.0274   3.2402   3.2518   3.3716
     3.3992   3.4055   3.6723   3.6842   3.7859   3.8034   3.8052   3.8908
     3.9016   3.9862   3.9922   4.2253   4.2281   4.3162   4.3256   4.4312
     4.4475   4.4663   4.4740   4.6381   5.2747   5.2833   5.3658   5.3731
     5.3903   5.5520   5.5601   5.6237   5.6581   5.6744   5.6821   5.7173
     5.7198   5.7320   5.7386   5.7676   6.0052   6.0397   6.0492   6.0617
     6.0637   6.0672   6.0730   6.0786   6.1578   6.1697   6.1784   6.1843

          k = 0.2500 0.2500-0.2500 (167588 PWs)   bands (ev):

   -19.7802  -7.6212  -6.9016  -6.3750  -6.3708  -5.9436  -5.5462  -5.4449
    -5.4390  -5.2457  -5.2439  -5.1534  -5.1255  -5.0469  -5.0323  -4.9546
    -4.8668  -4.8658  -4.8340  -4.8226  -4.6840  -4.6647  -4.6454  -4.6442
    -4.6370  -4.6173  -4.5826  -4.5752  -4.5697  -4.5534  -4.5328  -4.5204
    -4.4883  -4.4776  -4.4459  -4.4437  -4.4257  -4.3937  -4.3910  -4.3813
    -4.3794  -4.3737  -4.3602  -4.3465  -4.3183  -4.3025  -4.2987  -4.2940
    -4.2923  -4.2587  -4.2143  -4.1974  -4.1965  -4.1922  -4.1892  -4.1819
    -4.1798  -4.1780  -4.1537  -4.1186  -4.1140  -4.0642  -4.0531  -4.0493
    -4.0272  -4.0254  -4.0033  -4.0017  -3.9992  -3.9974  -3.9895  -3.9478
    -3.9392  -3.9356  -3.9336  -3.8318  -3.8285  -3.8213  -3.8165  -3.7901
    -3.7809  -3.7564  -3.7344  -3.7250  -3.7016  -3.6990  -3.6830  -3.6817
    -3.6726  -3.6675  -3.6123  -3.6107  -3.6045  -3.5742  -3.5724  -3.5706
    -3.5643  -3.5638  -3.5388  -3.5381  -3.5028  -3.4938  -3.4871  -3.4802
    -3.4507  -3.4441  -3.4325  -3.4027  -3.3991  -3.3649  -3.3617  -3.3286
    -3.3176  -3.3156  -3.3060  -3.3043  -3.2972  -3.2951  -3.2685  -3.2479
    -3.2124  -3.2095  -3.2002  -3.1912  -3.1897  -3.1851  -3.1683  -3.1667
    -3.1470  -3.1449  -3.1432  -3.1185  -3.1181  -3.1105  -3.1089  -3.1033
    -3.0694  -3.0687  -3.0382  -3.0321  -3.0308  -3.0286  -3.0252  -2.9477
    -2.9440  -2.9386  -2.9368  -2.9319  -2.9310  -2.9285  -2.9247  -2.9236
    -2.9232  -2.9151  -2.9071  -2.8961  -2.8906  -2.8859  -2.8802  -2.8741
    -2.8721  -2.8362  -2.8299  -2.8291  -2.8261  -2.8241  -2.8079  -2.8060
    -2.8010  -2.7992  -2.7938  -2.7464  -2.7388  -2.7355  -2.7313  -2.7273
    -2.7199  -2.7000  -2.6450  -2.6410  -2.6357  -2.6331  -2.6248  -2.6228
    -2.6173  -2.6094  -2.6062  -2.5827  -2.5751  -2.5701  -2.5666  -2.5602
    -2.5583  -2.5255  -2.5239  -2.5191  -2.5126  -2.5075  -2.5061  -2.4771
    -2.4562  -2.4396  -2.4040  -2.3915  -2.3835  -2.3776  -2.3660  -2.3640
    -2.3283  -2.3159  -2.2966  -2.2944  -2.2733  -2.2634  -2.2587  -2.2444
    -2.2391  -2.2319  -2.2076  -2.1983  -2.1783  -2.1693  -2.1581  -2.1552
    -2.1538  -2.1473  -2.1467  -2.1323  -2.1291  -2.1277  -2.1242  -2.1205
    -2.1173  -2.1145  -2.1107  -2.0959  -2.0895  -2.0871  -2.0855  -2.0806
    -2.0772  -2.0614  -2.0555  -2.0441  -2.0438  -2.0350  -2.0293  -1.9959
    -1.9683  -1.9648  -1.9404  -1.9309  -1.9188  -1.9103  -1.9049  -1.8916
    -1.8796  -1.8710  -1.8674  -1.8645  -1.8590  -1.8579  -1.8535  -1.8246
    -1.8229  -1.8192  -1.7882  -1.7807  -1.7498  -1.7399  -1.7344  -1.6923
    -1.6821  -1.6724  -1.6595  -1.6486  -1.6474  -1.6366  -1.6256  -1.6155
    -1.6132  -1.6114  -1.6066  -1.6050  -1.6039  -1.6018  -1.5875  -1.5807
    -1.5645  -1.5599  -1.5566  -1.5444  -1.5392  -1.5108  -1.5078  -1.5051
    -1.5048  -1.4978  -1.4869  -1.4752  -1.4653  -1.4612  -1.4524  -1.4444
    -1.4262  -1.4219  -1.4157  -1.4026  -1.3920  -1.3898  -1.3772  -1.3506
    -1.3468  -1.3415  -1.3407  -1.3377  -1.3229  -1.3136  -1.3110  -1.3056
    -1.2928  -1.2906  -1.2849  -1.2798  -1.2784  -1.2678  -1.2661  -1.2556
    -1.2467  -1.2461  -1.2427  -1.2322  -1.2246  -1.2234  -1.2202  -1.1842
    -1.1769  -1.1756  -1.1720  -1.1709  -1.1692  -1.1389  -1.1184  -1.1157
    -1.1149  -1.1136  -1.1113  -1.1070  -1.1013  -1.0907  -1.0838  -1.0576
    -1.0482  -1.0479  -1.0434  -1.0262  -1.0255  -1.0152  -0.9909  -0.9769
    -0.9547  -0.9493  -0.9244  -0.9229  -0.9198  -0.9185  -0.9144  -0.9090
    -0.9081  -0.9064  -0.9023  -0.8999  -0.8721  -0.8712  -0.8546  -0.8514
    -0.8467  -0.8445  -0.8434  -0.8273  -0.8171  -0.5615  -0.5370  -0.4840
    -0.4588  -0.4440  -0.2833  -0.2203  -0.2194  -0.1722   0.0966   0.1093
     0.4291   0.4476   0.5263   0.5294   0.5693   0.5723   0.7117   0.7313
     0.8347   0.8404   0.9403   1.5278   1.5399   1.5422   1.5712   1.5890
     1.6315   1.6525   1.7119   1.7260   1.9172   1.9218   2.1612   2.2346
     2.2417   2.2520   2.6318   2.6437   2.7002   2.7068   2.7125   2.7144
     2.8612   2.8643   2.9204   3.0078   3.0274   3.2402   3.2518   3.3716
     3.3992   3.4055   3.6723   3.6842   3.7859   3.8034   3.8052   3.8909
     3.9016   3.9862   3.9922   4.2253   4.2281   4.3162   4.3256   4.4312
     4.4475   4.4663   4.4740   4.6382   5.2746   5.2834   5.3505   5.3658
     5.3877   5.5520   5.5601   5.6227   5.6581   5.6746   5.7129   5.7158
     5.7179   5.7246   5.7669   5.7840   6.0054   6.0394   6.0494   6.0618
     6.0637   6.0673   6.0727   6.0785   6.1477   6.1576   6.1723   6.2910

          k =-0.2500-0.2500 0.0833 (167653 PWs)   bands (ev):

   -19.7802  -7.6212  -6.9016  -6.3750  -6.3708  -5.9436  -5.5462  -5.4449
    -5.4390  -5.2457  -5.2439  -5.1534  -5.1255  -5.0469  -5.0323  -4.9546
    -4.8668  -4.8658  -4.8340  -4.8226  -4.6840  -4.6647  -4.6454  -4.6442
    -4.6370  -4.6173  -4.5826  -4.5752  -4.5698  -4.5534  -4.5328  -4.5204
    -4.4883  -4.4776  -4.4459  -4.4437  -4.4257  -4.3937  -4.3910  -4.3813
    -4.3794  -4.3736  -4.3602  -4.3465  -4.3183  -4.3025  -4.2987  -4.2940
    -4.2923  -4.2587  -4.2143  -4.1974  -4.1965  -4.1922  -4.1892  -4.1819
    -4.1798  -4.1780  -4.1537  -4.1186  -4.1140  -4.0642  -4.0531  -4.0493
    -4.0272  -4.0254  -4.0033  -4.0017  -3.9992  -3.9974  -3.9895  -3.9478
    -3.9392  -3.9356  -3.9336  -3.8318  -3.8285  -3.8213  -3.8165  -3.7901
    -3.7809  -3.7564  -3.7344  -3.7250  -3.7016  -3.6990  -3.6830  -3.6817
    -3.6726  -3.6675  -3.6123  -3.6107  -3.6045  -3.5742  -3.5724  -3.5706
    -3.5643  -3.5638  -3.5388  -3.5381  -3.5028  -3.4938  -3.4872  -3.4802
    -3.4507  -3.4441  -3.4325  -3.4027  -3.3991  -3.3649  -3.3617  -3.3286
    -3.3176  -3.3156  -3.3060  -3.3043  -3.2972  -3.2951  -3.2685  -3.2479
    -3.2124  -3.2095  -3.2002  -3.1912  -3.1897  -3.1851  -3.1683  -3.1667
    -3.1470  -3.1449  -3.1432  -3.1186  -3.1181  -3.1105  -3.1089  -3.1034
    -3.0694  -3.0687  -3.0382  -3.0321  -3.0308  -3.0286  -3.0252  -2.9477
    -2.9440  -2.9386  -2.9368  -2.9319  -2.9310  -2.9285  -2.9247  -2.9236
    -2.9232  -2.9151  -2.9071  -2.8961  -2.8906  -2.8859  -2.8802  -2.8742
    -2.8722  -2.8362  -2.8299  -2.8291  -2.8261  -2.8241  -2.8080  -2.8060
    -2.8010  -2.7992  -2.7938  -2.7464  -2.7388  -2.7355  -2.7313  -2.7273
    -2.7199  -2.7000  -2.6450  -2.6410  -2.6357  -2.6331  -2.6248  -2.6228
    -2.6173  -2.6094  -2.6062  -2.5827  -2.5751  -2.5701  -2.5666  -2.5602
    -2.5583  -2.5255  -2.5239  -2.5191  -2.5126  -2.5075  -2.5060  -2.4771
    -2.4562  -2.4396  -2.4040  -2.3915  -2.3835  -2.3776  -2.3660  -2.3639
    -2.3283  -2.3159  -2.2966  -2.2944  -2.2733  -2.2634  -2.2587  -2.2444
    -2.2391  -2.2319  -2.2076  -2.1983  -2.1783  -2.1693  -2.1581  -2.1552
    -2.1538  -2.1473  -2.1467  -2.1323  -2.1291  -2.1277  -2.1242  -2.1205
    -2.1173  -2.1145  -2.1107  -2.0959  -2.0896  -2.0871  -2.0855  -2.0806
    -2.0772  -2.0614  -2.0555  -2.0441  -2.0438  -2.0350  -2.0293  -1.9959
    -1.9683  -1.9648  -1.9404  -1.9309  -1.9188  -1.9103  -1.9049  -1.8916
    -1.8796  -1.8710  -1.8674  -1.8645  -1.8590  -1.8579  -1.8535  -1.8246
    -1.8229  -1.8192  -1.7882  -1.7807  -1.7498  -1.7399  -1.7344  -1.6923
    -1.6821  -1.6724  -1.6595  -1.6486  -1.6474  -1.6366  -1.6256  -1.6155
    -1.6132  -1.6114  -1.6066  -1.6050  -1.6039  -1.6018  -1.5875  -1.5807
    -1.5645  -1.5599  -1.5566  -1.5444  -1.5392  -1.5108  -1.5078  -1.5051
    -1.5048  -1.4978  -1.4869  -1.4752  -1.4653  -1.4612  -1.4524  -1.4444
    -1.4262  -1.4219  -1.4157  -1.4026  -1.3920  -1.3898  -1.3772  -1.3506
    -1.3468  -1.3415  -1.3407  -1.3377  -1.3229  -1.3136  -1.3110  -1.3056
    -1.2928  -1.2906  -1.2849  -1.2798  -1.2784  -1.2678  -1.2661  -1.2556
    -1.2467  -1.2461  -1.2427  -1.2322  -1.2246  -1.2234  -1.2202  -1.1842
    -1.1769  -1.1756  -1.1720  -1.1709  -1.1692  -1.1389  -1.1184  -1.1157
    -1.1149  -1.1136  -1.1113  -1.1070  -1.1013  -1.0907  -1.0838  -1.0576
    -1.0482  -1.0479  -1.0434  -1.0262  -1.0255  -1.0152  -0.9909  -0.9769
    -0.9547  -0.9493  -0.9244  -0.9229  -0.9198  -0.9185  -0.9144  -0.9090
    -0.9081  -0.9064  -0.9023  -0.8999  -0.8721  -0.8712  -0.8546  -0.8514
    -0.8467  -0.8445  -0.8434  -0.8273  -0.8171  -0.5615  -0.5370  -0.4840
    -0.4588  -0.4440  -0.2833  -0.2203  -0.2194  -0.1722   0.0966   0.1093
     0.4291   0.4476   0.5263   0.5294   0.5693   0.5723   0.7117   0.7313
     0.8347   0.8404   0.9403   1.5278   1.5399   1.5422   1.5712   1.5890
     1.6315   1.6525   1.7119   1.7260   1.9172   1.9218   2.1612   2.2346
     2.2417   2.2520   2.6318   2.6437   2.7002   2.7068   2.7125   2.7144
     2.8612   2.8643   2.9204   3.0078   3.0274   3.2402   3.2518   3.3716
     3.3992   3.4055   3.6723   3.6842   3.7859   3.8034   3.8052   3.8908
     3.9016   3.9862   3.9922   4.2253   4.2281   4.3162   4.3256   4.4312
     4.4475   4.4663   4.4740   4.6381   5.2747   5.2833   5.3658   5.3731
     5.3903   5.5520   5.5601   5.6237   5.6581   5.6744   5.6821   5.7173
     5.7198   5.7320   5.7386   5.7675   6.0052   6.0397   6.0492   6.0617
     6.0637   6.0672   6.0730   6.0786   6.1577   6.1698   6.1784   6.1842

          k =-0.2500 0.2500-0.0833 (167653 PWs)   bands (ev):

   -19.7802  -7.6213  -6.9015  -6.3766  -6.3695  -5.9432  -5.5457  -5.4457
    -5.4378  -5.2465  -5.2442  -5.1567  -5.1239  -5.0467  -5.0301  -4.9532
    -4.8697  -4.8671  -4.8375  -4.8222  -4.6786  -4.6649  -4.6460  -4.6433
    -4.6368  -4.6140  -4.5825  -4.5739  -4.5685  -4.5551  -4.5329  -4.5188
    -4.4892  -4.4775  -4.4457  -4.4440  -4.4303  -4.3927  -4.3898  -4.3817
    -4.3799  -4.3736  -4.3603  -4.3453  -4.3209  -4.3035  -4.2984  -4.2935
    -4.2924  -4.2607  -4.2157  -4.1984  -4.1955  -4.1914  -4.1897  -4.1832
    -4.1800  -4.1777  -4.1504  -4.1197  -4.1129  -4.0627  -4.0557  -4.0523
    -4.0278  -4.0259  -4.0030  -4.0022  -3.9994  -3.9968  -3.9869  -3.9482
    -3.9391  -3.9348  -3.9324  -3.8309  -3.8269  -3.8200  -3.8183  -3.7900
    -3.7815  -3.7566  -3.7353  -3.7237  -3.7005  -3.7003  -3.6835  -3.6814
    -3.6715  -3.6658  -3.6128  -3.6109  -3.6070  -3.5739  -3.5722  -3.5713
    -3.5645  -3.5637  -3.5386  -3.5380  -3.5037  -3.4929  -3.4879  -3.4778
    -3.4518  -3.4425  -3.4328  -3.4050  -3.3988  -3.3652  -3.3605  -3.3268
    -3.3178  -3.3156  -3.3047  -3.3038  -3.2972  -3.2955  -3.2686  -3.2478
    -3.2131  -3.2098  -3.1997  -3.1911  -3.1896  -3.1868  -3.1667  -3.1662
    -3.1491  -3.1454  -3.1417  -3.1201  -3.1186  -3.1103  -3.1099  -3.1026
    -3.0710  -3.0697  -3.0363  -3.0308  -3.0302  -3.0281  -3.0252  -2.9485
    -2.9455  -2.9389  -2.9377  -2.9307  -2.9304  -2.9296  -2.9247  -2.9240
    -2.9230  -2.9151  -2.9072  -2.8951  -2.8935  -2.8859  -2.8810  -2.8742
    -2.8733  -2.8352  -2.8303  -2.8296  -2.8238  -2.8227  -2.8080  -2.8052
    -2.8028  -2.7984  -2.7941  -2.7471  -2.7407  -2.7366  -2.7322  -2.7272
    -2.7199  -2.6987  -2.6494  -2.6410  -2.6356  -2.6333  -2.6265  -2.6223
    -2.6166  -2.6091  -2.6065  -2.5802  -2.5745  -2.5674  -2.5649  -2.5600
    -2.5571  -2.5248  -2.5218  -2.5140  -2.5120  -2.5092  -2.5054  -2.4678
    -2.4520  -2.4403  -2.4017  -2.3957  -2.3841  -2.3783  -2.3660  -2.3634
    -2.3254  -2.3143  -2.2986  -2.2948  -2.2805  -2.2629  -2.2587  -2.2440
    -2.2399  -2.2323  -2.2076  -2.2007  -2.1855  -2.1684  -2.1625  -2.1552
    -2.1529  -2.1514  -2.1455  -2.1355  -2.1290  -2.1272  -2.1225  -2.1186
    -2.1171  -2.1159  -2.1074  -2.0949  -2.0915  -2.0877  -2.0873  -2.0813
    -2.0763  -2.0626  -2.0529  -2.0453  -2.0439  -2.0354  -2.0288  -1.9959
    -1.9841  -1.9646  -1.9558  -1.9305  -1.9163  -1.9103  -1.8982  -1.8887
    -1.8804  -1.8752  -1.8692  -1.8627  -1.8600  -1.8573  -1.8525  -1.8241
    -1.8227  -1.8201  -1.7832  -1.7780  -1.7543  -1.7347  -1.7126  -1.6924
    -1.6869  -1.6765  -1.6552  -1.6486  -1.6476  -1.6395  -1.6226  -1.6181
    -1.6112  -1.6097  -1.6069  -1.6056  -1.6042  -1.6007  -1.5891  -1.5799
    -1.5671  -1.5630  -1.5540  -1.5428  -1.5255  -1.5155  -1.5064  -1.5043
    -1.5016  -1.4994  -1.4945  -1.4736  -1.4660  -1.4544  -1.4517  -1.4446
    -1.4339  -1.4217  -1.4179  -1.3986  -1.3948  -1.3877  -1.3822  -1.3553
    -1.3456  -1.3412  -1.3406  -1.3341  -1.3265  -1.3170  -1.3097  -1.3028
    -1.2931  -1.2895  -1.2861  -1.2785  -1.2754  -1.2714  -1.2665  -1.2560
    -1.2492  -1.2474  -1.2439  -1.2361  -1.2239  -1.2206  -1.2170  -1.1836
    -1.1798  -1.1786  -1.1713  -1.1703  -1.1662  -1.1374  -1.1191  -1.1153
    -1.1136  -1.1133  -1.1071  -1.1047  -1.0962  -1.0896  -1.0840  -1.0548
    -1.0514  -1.0479  -1.0456  -1.0273  -1.0253  -1.0147  -0.9879  -0.9774
    -0.9564  -0.9480  -0.9275  -0.9229  -0.9182  -0.9179  -0.9145  -0.9102
    -0.9089  -0.9080  -0.9014  -0.8998  -0.8726  -0.8700  -0.8515  -0.8497
    -0.8462  -0.8449  -0.8403  -0.8270  -0.8245  -0.5620  -0.5369  -0.4789
    -0.4624  -0.4448  -0.2888  -0.2245  -0.2179  -0.1737   0.1015   0.1058
     0.4336   0.4431   0.5240   0.5298   0.5653   0.5718   0.7194   0.7261
     0.8353   0.8414   0.9398   1.5249   1.5404   1.5446   1.5792   1.5891
     1.6402   1.6449   1.7165   1.7191   1.9162   1.9218   2.1647   2.2361
     2.2394   2.2517   2.6389   2.6435   2.7031   2.7050   2.7092   2.7159
     2.8601   2.8654   2.9236   3.0087   3.0139   3.2366   3.2424   3.3712
     3.4019   3.4050   3.6750   3.6772   3.7943   3.8026   3.8070   3.8874
     3.9019   3.9779   3.9949   4.2194   4.2315   4.3197   4.3244   4.4398
     4.4423   4.4743   4.4838   4.6488   5.2835   5.2917   5.3590   5.3715
     5.3808   5.5442   5.5554   5.6237   5.6676   5.6749   5.6809   5.6923
     5.7203   5.7275   5.7458   5.7636   6.0083   6.0323   6.0435   6.0549
     6.0623   6.0677   6.0780   6.0786   6.1597   6.1673   6.1755   6.1865

          k = 0.2500-0.2500-0.0833 (167653 PWs)   bands (ev):

   -19.7802  -7.6213  -6.9015  -6.3766  -6.3695  -5.9432  -5.5457  -5.4457
    -5.4378  -5.2465  -5.2442  -5.1567  -5.1239  -5.0467  -5.0301  -4.9532
    -4.8697  -4.8671  -4.8375  -4.8222  -4.6786  -4.6649  -4.6460  -4.6433
    -4.6368  -4.6140  -4.5825  -4.5739  -4.5685  -4.5551  -4.5329  -4.5188
    -4.4892  -4.4775  -4.4457  -4.4440  -4.4303  -4.3927  -4.3898  -4.3817
    -4.3799  -4.3736  -4.3603  -4.3453  -4.3209  -4.3035  -4.2984  -4.2935
    -4.2924  -4.2607  -4.2157  -4.1984  -4.1955  -4.1914  -4.1897  -4.1832
    -4.1800  -4.1777  -4.1504  -4.1197  -4.1129  -4.0627  -4.0557  -4.0523
    -4.0278  -4.0259  -4.0030  -4.0022  -3.9994  -3.9968  -3.9869  -3.9482
    -3.9391  -3.9348  -3.9324  -3.8309  -3.8269  -3.8200  -3.8183  -3.7900
    -3.7815  -3.7566  -3.7353  -3.7237  -3.7005  -3.7003  -3.6835  -3.6814
    -3.6715  -3.6658  -3.6128  -3.6109  -3.6070  -3.5739  -3.5722  -3.5713
    -3.5645  -3.5637  -3.5386  -3.5380  -3.5037  -3.4929  -3.4879  -3.4778
    -3.4518  -3.4425  -3.4328  -3.4050  -3.3988  -3.3652  -3.3605  -3.3268
    -3.3178  -3.3156  -3.3047  -3.3038  -3.2972  -3.2955  -3.2686  -3.2478
    -3.2131  -3.2098  -3.1997  -3.1911  -3.1896  -3.1868  -3.1667  -3.1662
    -3.1491  -3.1454  -3.1417  -3.1201  -3.1186  -3.1103  -3.1099  -3.1026
    -3.0710  -3.0697  -3.0363  -3.0308  -3.0302  -3.0281  -3.0252  -2.9485
    -2.9455  -2.9389  -2.9377  -2.9307  -2.9304  -2.9296  -2.9247  -2.9240
    -2.9230  -2.9151  -2.9072  -2.8951  -2.8935  -2.8859  -2.8810  -2.8742
    -2.8733  -2.8352  -2.8303  -2.8296  -2.8238  -2.8227  -2.8080  -2.8052
    -2.8028  -2.7984  -2.7941  -2.7471  -2.7407  -2.7366  -2.7322  -2.7272
    -2.7199  -2.6987  -2.6494  -2.6410  -2.6356  -2.6333  -2.6265  -2.6223
    -2.6166  -2.6091  -2.6065  -2.5802  -2.5745  -2.5674  -2.5649  -2.5600
    -2.5571  -2.5248  -2.5218  -2.5140  -2.5120  -2.5092  -2.5054  -2.4678
    -2.4520  -2.4403  -2.4017  -2.3957  -2.3841  -2.3783  -2.3660  -2.3634
    -2.3254  -2.3143  -2.2986  -2.2948  -2.2805  -2.2629  -2.2587  -2.2440
    -2.2399  -2.2323  -2.2076  -2.2007  -2.1855  -2.1684  -2.1625  -2.1552
    -2.1529  -2.1514  -2.1455  -2.1355  -2.1290  -2.1272  -2.1225  -2.1186
    -2.1171  -2.1159  -2.1074  -2.0949  -2.0915  -2.0877  -2.0873  -2.0813
    -2.0763  -2.0626  -2.0529  -2.0453  -2.0439  -2.0354  -2.0288  -1.9959
    -1.9841  -1.9646  -1.9558  -1.9305  -1.9163  -1.9103  -1.8982  -1.8887
    -1.8804  -1.8752  -1.8692  -1.8627  -1.8600  -1.8573  -1.8525  -1.8241
    -1.8227  -1.8201  -1.7832  -1.7780  -1.7543  -1.7347  -1.7126  -1.6924
    -1.6869  -1.6765  -1.6552  -1.6486  -1.6476  -1.6395  -1.6226  -1.6181
    -1.6112  -1.6097  -1.6069  -1.6056  -1.6042  -1.6007  -1.5891  -1.5799
    -1.5671  -1.5630  -1.5540  -1.5428  -1.5255  -1.5155  -1.5064  -1.5043
    -1.5016  -1.4994  -1.4945  -1.4736  -1.4660  -1.4544  -1.4517  -1.4446
    -1.4339  -1.4217  -1.4179  -1.3986  -1.3948  -1.3877  -1.3822  -1.3553
    -1.3456  -1.3412  -1.3406  -1.3341  -1.3265  -1.3170  -1.3097  -1.3028
    -1.2931  -1.2895  -1.2861  -1.2785  -1.2754  -1.2714  -1.2665  -1.2560
    -1.2492  -1.2474  -1.2439  -1.2361  -1.2239  -1.2206  -1.2170  -1.1836
    -1.1798  -1.1786  -1.1713  -1.1703  -1.1662  -1.1374  -1.1191  -1.1153
    -1.1136  -1.1133  -1.1071  -1.1047  -1.0962  -1.0896  -1.0840  -1.0548
    -1.0514  -1.0479  -1.0456  -1.0273  -1.0253  -1.0147  -0.9879  -0.9774
    -0.9564  -0.9480  -0.9275  -0.9229  -0.9182  -0.9179  -0.9145  -0.9102
    -0.9089  -0.9080  -0.9014  -0.8998  -0.8726  -0.8700  -0.8515  -0.8497
    -0.8462  -0.8449  -0.8403  -0.8270  -0.8245  -0.5620  -0.5369  -0.4789
    -0.4624  -0.4448  -0.2888  -0.2245  -0.2179  -0.1737   0.1015   0.1058
     0.4336   0.4431   0.5240   0.5298   0.5653   0.5718   0.7194   0.7261
     0.8353   0.8414   0.9398   1.5249   1.5404   1.5446   1.5792   1.5891
     1.6402   1.6449   1.7165   1.7191   1.9162   1.9218   2.1647   2.2361
     2.2394   2.2517   2.6389   2.6435   2.7031   2.7050   2.7092   2.7159
     2.8601   2.8654   2.9236   3.0087   3.0139   3.2366   3.2424   3.3712
     3.4019   3.4050   3.6750   3.6772   3.7943   3.8026   3.8070   3.8874
     3.9019   3.9779   3.9949   4.2194   4.2315   4.3197   4.3244   4.4398
     4.4423   4.4743   4.4838   4.6488   5.2835   5.2917   5.3590   5.3715
     5.3808   5.5442   5.5554   5.6237   5.6676   5.6747   5.6810   5.6924
     5.7203   5.7276   5.7458   5.7636   6.0083   6.0323   6.0435   6.0549
     6.0623   6.0677   6.0780   6.0786   6.1596   6.1674   6.1755   6.1865

          k =-0.2500 0.2500 0.2500 (167588 PWs)   bands (ev):

   -19.7802  -7.6212  -6.9015  -6.3766  -6.3695  -5.9432  -5.5457  -5.4457
    -5.4378  -5.2465  -5.2442  -5.1567  -5.1239  -5.0467  -5.0301  -4.9532
    -4.8697  -4.8671  -4.8375  -4.8222  -4.6786  -4.6649  -4.6460  -4.6433
    -4.6369  -4.6140  -4.5825  -4.5739  -4.5685  -4.5551  -4.5329  -4.5188
    -4.4892  -4.4775  -4.4458  -4.4440  -4.4303  -4.3927  -4.3898  -4.3817
    -4.3799  -4.3736  -4.3603  -4.3453  -4.3210  -4.3035  -4.2984  -4.2935
    -4.2924  -4.2607  -4.2157  -4.1984  -4.1955  -4.1914  -4.1897  -4.1832
    -4.1800  -4.1777  -4.1504  -4.1197  -4.1129  -4.0627  -4.0557  -4.0523
    -4.0278  -4.0259  -4.0030  -4.0022  -3.9994  -3.9968  -3.9869  -3.9482
    -3.9391  -3.9348  -3.9324  -3.8309  -3.8269  -3.8200  -3.8183  -3.7900
    -3.7815  -3.7566  -3.7353  -3.7237  -3.7005  -3.7003  -3.6835  -3.6814
    -3.6715  -3.6658  -3.6128  -3.6109  -3.6070  -3.5739  -3.5722  -3.5713
    -3.5645  -3.5636  -3.5386  -3.5380  -3.5037  -3.4929  -3.4879  -3.4777
    -3.4518  -3.4425  -3.4328  -3.4050  -3.3988  -3.3652  -3.3605  -3.3268
    -3.3178  -3.3156  -3.3047  -3.3038  -3.2972  -3.2955  -3.2687  -3.2478
    -3.2131  -3.2098  -3.1997  -3.1911  -3.1896  -3.1868  -3.1667  -3.1662
    -3.1491  -3.1454  -3.1417  -3.1200  -3.1186  -3.1103  -3.1099  -3.1026
    -3.0710  -3.0697  -3.0363  -3.0308  -3.0302  -3.0281  -3.0252  -2.9485
    -2.9456  -2.9389  -2.9377  -2.9307  -2.9304  -2.9296  -2.9247  -2.9240
    -2.9230  -2.9151  -2.9072  -2.8951  -2.8935  -2.8859  -2.8810  -2.8741
    -2.8733  -2.8352  -2.8302  -2.8296  -2.8238  -2.8227  -2.8080  -2.8052
    -2.8028  -2.7984  -2.7941  -2.7471  -2.7407  -2.7366  -2.7322  -2.7272
    -2.7198  -2.6987  -2.6494  -2.6410  -2.6356  -2.6333  -2.6265  -2.6223
    -2.6166  -2.6091  -2.6065  -2.5802  -2.5745  -2.5674  -2.5649  -2.5600
    -2.5571  -2.5248  -2.5218  -2.5140  -2.5120  -2.5092  -2.5054  -2.4678
    -2.4520  -2.4403  -2.4017  -2.3957  -2.3841  -2.3783  -2.3660  -2.3634
    -2.3254  -2.3143  -2.2987  -2.2948  -2.2805  -2.2628  -2.2587  -2.2440
    -2.2399  -2.2323  -2.2076  -2.2007  -2.1855  -2.1684  -2.1625  -2.1552
    -2.1529  -2.1514  -2.1455  -2.1355  -2.1290  -2.1272  -2.1225  -2.1186
    -2.1171  -2.1159  -2.1074  -2.0949  -2.0915  -2.0877  -2.0873  -2.0813
    -2.0763  -2.0626  -2.0529  -2.0453  -2.0439  -2.0354  -2.0288  -1.9959
    -1.9841  -1.9646  -1.9558  -1.9305  -1.9163  -1.9103  -1.8982  -1.8887
    -1.8804  -1.8752  -1.8692  -1.8627  -1.8600  -1.8573  -1.8525  -1.8241
    -1.8227  -1.8201  -1.7832  -1.7780  -1.7543  -1.7347  -1.7126  -1.6924
    -1.6869  -1.6765  -1.6552  -1.6486  -1.6476  -1.6395  -1.6226  -1.6181
    -1.6112  -1.6097  -1.6069  -1.6056  -1.6042  -1.6007  -1.5891  -1.5799
    -1.5671  -1.5630  -1.5540  -1.5428  -1.5255  -1.5155  -1.5064  -1.5043
    -1.5016  -1.4994  -1.4945  -1.4736  -1.4660  -1.4544  -1.4517  -1.4446
    -1.4339  -1.4217  -1.4179  -1.3986  -1.3948  -1.3877  -1.3822  -1.3553
    -1.3456  -1.3412  -1.3406  -1.3341  -1.3265  -1.3170  -1.3097  -1.3028
    -1.2931  -1.2895  -1.2861  -1.2785  -1.2754  -1.2714  -1.2665  -1.2560
    -1.2492  -1.2474  -1.2439  -1.2361  -1.2239  -1.2206  -1.2170  -1.1836
    -1.1798  -1.1786  -1.1713  -1.1703  -1.1662  -1.1374  -1.1190  -1.1153
    -1.1136  -1.1133  -1.1071  -1.1047  -1.0961  -1.0896  -1.0839  -1.0548
    -1.0514  -1.0479  -1.0456  -1.0273  -1.0253  -1.0147  -0.9879  -0.9774
    -0.9564  -0.9480  -0.9275  -0.9229  -0.9182  -0.9179  -0.9145  -0.9102
    -0.9089  -0.9080  -0.9014  -0.8998  -0.8726  -0.8700  -0.8515  -0.8497
    -0.8462  -0.8449  -0.8402  -0.8270  -0.8245  -0.5620  -0.5369  -0.4788
    -0.4624  -0.4448  -0.2888  -0.2245  -0.2179  -0.1737   0.1015   0.1058
     0.4336   0.4431   0.5240   0.5298   0.5653   0.5718   0.7194   0.7261
     0.8353   0.8414   0.9398   1.5249   1.5404   1.5446   1.5792   1.5891
     1.6402   1.6449   1.7165   1.7191   1.9162   1.9218   2.1647   2.2361
     2.2394   2.2517   2.6389   2.6435   2.7031   2.7050   2.7092   2.7159
     2.8601   2.8654   2.9236   3.0087   3.0139   3.2366   3.2425   3.3712
     3.4019   3.4050   3.6750   3.6772   3.7943   3.8026   3.8070   3.8875
     3.9020   3.9779   3.9949   4.2193   4.2315   4.3197   4.3244   4.4398
     4.4423   4.4743   4.4838   4.6489   5.2835   5.2918   5.3470   5.3675
     5.3716   5.5441   5.5554   5.6225   5.6672   5.6748   5.6908   5.7075
     5.7238   5.7278   5.7630   5.7833   6.0080   6.0324   6.0435   6.0550
     6.0624   6.0677   6.0780   6.0788   6.1478   6.1585   6.1685   6.2900

     the Fermi energy is     0.7915 ev

!    total energy              =   -7425.25531755 Ry
     Harris-Foulkes estimate   =   -7425.25531755 Ry
     estimated scf accuracy    <          5.0E-09 Ry

     The total energy is the sum of the following terms:

     one-electron contribution =  -48899.54581930 Ry
     hartree contribution      =   24998.25756657 Ry
     xc contribution           =   -3604.29597745 Ry
     ewald contribution        =   20080.33112083 Ry
     smearing contrib. (-TS)   =      -0.00220819 Ry

     convergence has been achieved in  26 iterations

     Writing output data file 4223176.save

     init_run     :     90.23s CPU     97.65s WALL (       1 calls)
     electrons    :   6281.06s CPU   6681.12s WALL (       1 calls)

     Called by init_run:
     wfcinit      :     67.28s CPU     73.90s WALL (       1 calls)
     potinit      :      5.44s CPU      5.83s WALL (       1 calls)

     Called by electrons:
     c_bands      :   5067.36s CPU   5384.13s WALL (      27 calls)
     sum_band     :    739.80s CPU    807.36s WALL (      27 calls)
     v_of_rho     :     95.12s CPU    104.57s WALL (      27 calls)
     newd         :    383.90s CPU    388.13s WALL (      27 calls)
     mix_rho      :      2.97s CPU      3.41s WALL (      27 calls)
     vdW_energy   :      9.73s CPU     10.24s WALL (      27 calls)
     vdW_ffts     :     45.13s CPU     49.95s WALL (      54 calls)
     vdW_v        :     12.75s CPU     13.50s WALL (      27 calls)

     Called by c_bands:
     init_us_2    :      8.04s CPU      8.34s WALL (     330 calls)
     cegterg      :   5008.33s CPU   5324.04s WALL (     162 calls)

     Called by *egterg:
     h_psi        :   1996.89s CPU   2287.60s WALL (     820 calls)
     s_psi        :    339.85s CPU    341.52s WALL (     820 calls)
     g_psi        :      4.37s CPU      4.39s WALL (     652 calls)
     cdiaghg      :   1557.33s CPU   1562.18s WALL (     808 calls)

     Called by h_psi:
     add_vuspsi   :    340.47s CPU    342.16s WALL (     820 calls)

     General routines
     calbec       :    509.92s CPU    511.74s WALL (     982 calls)
     fft          :    145.96s CPU    155.47s WALL (    1782 calls)
     ffts         :      1.51s CPU      1.74s WALL (      54 calls)
     fftw         :   1462.19s CPU   1787.05s WALL (  436916 calls)
     interpolate  :      3.88s CPU      4.54s WALL (      54 calls)
     davcio       :      0.00s CPU      0.11s WALL (       6 calls)

     Parallel routines
     fft_scatter  :   1060.32s CPU   1304.07s WALL (  438752 calls)

     PWSCF        :     1h46m CPU        1h53m WALL


   This run was terminated on:   3:36:28  25Jun2015            

=------------------------------------------------------------------------------=
   JOB DONE.
=------------------------------------------------------------------------------=
