Setting SGE environment for SCC

     Program PWSCF v.5.1.2 starts on  9Aug2015 at 19:27:29 

     This program is part of the open-source Quantum ESPRESSO suite
     for quantum simulation of materials; please cite
         "P. Giannozzi et al., J. Phys.:Condens. Matter 21 395502 (2009);
          URL http://www.quantum-espresso.org", 
     in publications or presentations arising from this work. More details at
     http://www.quantum-espresso.org/quote

     Parallel version (MPI), running on    32 processors
     R & G space division:  proc/nbgrp/npool/nimage =      32
     Reading input from bridge.O1.Au6165.d.2.5.phi.0.psi.90.in
Warning: card &IONS ignored
Warning: card / ignored
Warning: card &CELL ignored
Warning: card / ignored

     Current dimensions of program PWSCF are:
     Max number of different atomic species (ntypx) = 10
     Max number of k-points (npk) =  40000
     Max angular momentum in pseudopotentials (lmaxx) =  3

     Subspace diagonalization in iterative solution of the eigenvalue problem:
     a serial algorithm will be used


     Parallelization info
     --------------------
     sticks:   dense  smooth     PW     G-vecs:    dense   smooth      PW
     Min         578     289     74               118518    41891    5486
     Max         579     290     75               118533    41932    5497
     Sum       18505    9265   2385              3792731  1341081  175711


     Title: 
     bridge.O1.Au6165.d.2.5.phi.0.psi.90                                        


     bravais-lattice index     =            8
     lattice parameter (alat)  =      24.1233  a.u.
     unit-cell volume          =   28076.2361 (a.u.)^3
     number of atoms/cell      =           75
     number of atomic types    =            3
     number of electrons       =       800.00
     number of Kohn-Sham states=          480
     kinetic-energy cutoff     =      50.0000  Ry
     charge density cutoff     =     400.0000  Ry
     convergence threshold     =      1.0E-08
     mixing beta               =       0.7000
     number of iterations used =            8  plain     mixing
     Exchange-correlation      =  SLA  PW   PBE  PBE ( 1  4  3  4 0 0)

     celldm(1)=  24.123277  celldm(2)=   1.000000  celldm(3)=   2.000000
     celldm(4)=   0.000000  celldm(5)=   0.000000  celldm(6)=   0.000000

     crystal axes: (cart. coord. in units of alat)
               a(1) = (   1.000000   0.000000   0.000000 )  
               a(2) = (   0.000000   1.000000   0.000000 )  
               a(3) = (   0.000000   0.000000   2.000000 )  

     reciprocal axes: (cart. coord. in units 2 pi/alat)
               b(1) = (  1.000000  0.000000  0.000000 )  
               b(2) = (  0.000000  1.000000  0.000000 )  
               b(3) = (  0.000000  0.000000  0.500000 )  


     PseudoPot. # 1 for Au read from file:
     /home/scc/andrejb/qe/pseudo/Au.pbe-nd-van.UPF
     MD5 check sum: 458681b50f36d87ef23c61b04bba420a
     Pseudo is Ultrasoft + core correction, Zval = 11.0
     Generated by new atomic code, or converted to UPF format
     Using radial grid of  985 points,  3 beta functions with: 
                l(1) =   1
                l(2) =   2
                l(3) =   2
     Q(r) pseudized with  8 coefficients,  rinner =    1.100   1.100   1.100
                                                       1.100   1.100

     PseudoPot. # 2 for H  read from file:
     /home/scc/andrejb/qe/pseudo/H.pbe-van_ak.UPF
     MD5 check sum: 403db7282739603aa925980fa9b8608d
     Pseudo is Ultrasoft, Zval =  1.0
     Generated by new atomic code, or converted to UPF format
     Using radial grid of  615 points,  1 beta functions with: 
                l(1) =   0
     Q(r) pseudized with  8 coefficients,  rinner =    0.800

     PseudoPot. # 3 for O  read from file:
     /home/scc/andrejb/qe/pseudo/O.pbe-van_ak.UPF
     MD5 check sum: 4b8c549914a63cae506c6ff22b5af4fe
     Pseudo is Ultrasoft, Zval =  6.0
     Generated by new atomic code, or converted to UPF format
     Using radial grid of  737 points,  4 beta functions with: 
                l(1) =   0
                l(2) =   0
                l(3) =   1
                l(4) =   1
     Q(r) pseudized with  8 coefficients,  rinner =    0.800   0.800   0.800


     atomic species   valence    mass     pseudopotential
        Au            11.00   196.96657     Au( 1.00)
        H              1.00     1.01000     H ( 1.00)
        O              6.00    16.00000     O ( 1.00)

     No symmetry found



   Cartesian axes

     site n.     atom                  positions (alat units)
         1           O   tau(   1) = (   0.2499161   0.4165269   0.6951590  )
         2           H   tau(   2) = (   0.2028385   0.3710330   0.6559875  )
         3           H   tau(   3) = (   0.2955663   0.3686692   0.7331607  )
         4           Au  tau(   4) = (   0.0000000   0.0000000   0.0000000  )
         5           Au  tau(   5) = (   0.3332217   0.0000000   0.0000000  )
         6           Au  tau(   6) = (   0.6664434   0.0000000   0.0000000  )
         7           Au  tau(   7) = (   0.1666109   0.1666109   0.0000000  )
         8           Au  tau(   8) = (   0.4998326   0.1666109   0.0000000  )
         9           Au  tau(   9) = (   0.8330542   0.1666109   0.0000000  )
        10           Au  tau(  10) = (   0.0000000   0.3332217   0.0000000  )
        11           Au  tau(  11) = (   0.3332217   0.3332217   0.0000000  )
        12           Au  tau(  12) = (   0.6664434   0.3332217   0.0000000  )
        13           Au  tau(  13) = (   0.1666109   0.4998326   0.0000000  )
        14           Au  tau(  14) = (   0.4998326   0.4998326   0.0000000  )
        15           Au  tau(  15) = (   0.8330542   0.4998326   0.0000000  )
        16           Au  tau(  16) = (   0.0000000   0.6664434   0.0000000  )
        17           Au  tau(  17) = (   0.3332217   0.6664434   0.0000000  )
        18           Au  tau(  18) = (   0.6664434   0.6664434   0.0000000  )
        19           Au  tau(  19) = (   0.1666109   0.8330542   0.0000000  )
        20           Au  tau(  20) = (   0.4998326   0.8330542   0.0000000  )
        21           Au  tau(  21) = (   0.8330542   0.8330542   0.0000000  )
        22           Au  tau(  22) = (   0.1666109   0.0000000   0.1666109  )
        23           Au  tau(  23) = (   0.4998326   0.0000000   0.1666109  )
        24           Au  tau(  24) = (   0.8330542   0.0000000   0.1666109  )
        25           Au  tau(  25) = (   0.0000000   0.1666109   0.1666109  )
        26           Au  tau(  26) = (   0.3332217   0.1666109   0.1666109  )
        27           Au  tau(  27) = (   0.6664434   0.1666109   0.1666109  )
        28           Au  tau(  28) = (   0.1666109   0.3332217   0.1666109  )
        29           Au  tau(  29) = (   0.4998326   0.3332217   0.1666109  )
        30           Au  tau(  30) = (   0.8330542   0.3332217   0.1666109  )
        31           Au  tau(  31) = (   0.0000000   0.4998326   0.1666109  )
        32           Au  tau(  32) = (   0.3332217   0.4998326   0.1666109  )
        33           Au  tau(  33) = (   0.6664434   0.4998326   0.1666109  )
        34           Au  tau(  34) = (   0.1666109   0.6664434   0.1666109  )
        35           Au  tau(  35) = (   0.4998326   0.6664434   0.1666109  )
        36           Au  tau(  36) = (   0.8330542   0.6664434   0.1666109  )
        37           Au  tau(  37) = (   0.0000000   0.8330542   0.1666109  )
        38           Au  tau(  38) = (   0.3332217   0.8330542   0.1666109  )
        39           Au  tau(  39) = (   0.6664434   0.8330542   0.1666109  )
        40           Au  tau(  40) = (  -0.0000182  -0.0000182   0.3335478  )
        41           Au  tau(  41) = (   0.3332215  -0.0000181   0.3335473  )
        42           Au  tau(  42) = (   0.6664447  -0.0000183   0.3335481  )
        43           Au  tau(  43) = (  -0.0000181   0.3332215   0.3335473  )
        44           Au  tau(  44) = (   0.3332215   0.3332215   0.3335468  )
        45           Au  tau(  45) = (   0.6664445   0.3332215   0.3335477  )
        46           Au  tau(  46) = (  -0.0000183   0.6664447   0.3335481  )
        47           Au  tau(  47) = (   0.3332215   0.6664445   0.3335477  )
        48           Au  tau(  48) = (   0.6664446   0.6664446   0.3335486  )
        49           Au  tau(  49) = (   0.1666097   0.1666097   0.3335483  )
        50           Au  tau(  50) = (   0.4998320   0.1666098   0.3335477  )
        51           Au  tau(  51) = (   0.8330732   0.1666096   0.3335480  )
        52           Au  tau(  52) = (   0.1666098   0.4998320   0.3335477  )
        53           Au  tau(  53) = (   0.4998322   0.4998322   0.3335470  )
        54           Au  tau(  54) = (   0.8330731   0.4998322   0.3335474  )
        55           Au  tau(  55) = (   0.1666096   0.8330732   0.3335480  )
        56           Au  tau(  56) = (   0.4998322   0.8330731   0.3335474  )
        57           Au  tau(  57) = (   0.8330731   0.8330731   0.3335478  )
        58           Au  tau(  58) = (   0.1666104  -0.0000111   0.4993095  )
        59           Au  tau(  59) = (   0.4998323  -0.0000112   0.4993099  )
        60           Au  tau(  60) = (   0.8330660  -0.0000111   0.4993009  )
        61           Au  tau(  61) = (  -0.0000111   0.1666104   0.4993095  )
        62           Au  tau(  62) = (   0.3332213   0.1666106   0.4993185  )
        63           Au  tau(  63) = (   0.6664437   0.1666106   0.4993187  )
        64           Au  tau(  64) = (   0.1666106   0.3332213   0.4993185  )
        65           Au  tau(  65) = (   0.4998324   0.3332216   0.4993185  )
        66           Au  tau(  66) = (   0.8330658   0.3332215   0.4993102  )
        67           Au  tau(  67) = (  -0.0000112   0.4998323   0.4993099  )
        68           Au  tau(  68) = (   0.3332216   0.4998324   0.4993185  )
        69           Au  tau(  69) = (   0.6664437   0.4998325   0.4993187  )
        70           Au  tau(  70) = (   0.1666106   0.6664437   0.4993187  )
        71           Au  tau(  71) = (   0.4998325   0.6664437   0.4993187  )
        72           Au  tau(  72) = (   0.8330658   0.6664438   0.4993102  )
        73           Au  tau(  73) = (  -0.0000111   0.8330660   0.4993009  )
        74           Au  tau(  74) = (   0.3332215   0.8330658   0.4993102  )
        75           Au  tau(  75) = (   0.6664438   0.8330658   0.4993102  )

     number of k points=     6  Marzari-Vanderbilt smearing, width (Ry)=  0.0200
                       cart. coord. in units 2pi/alat
        k(    1) = (   0.2500000   0.2500000   0.0833333), wk =   0.3333333
        k(    2) = (   0.2500000   0.2500000  -0.2500000), wk =   0.3333333
        k(    3) = (  -0.2500000  -0.2500000   0.0833333), wk =   0.3333333
        k(    4) = (  -0.2500000   0.2500000  -0.0833333), wk =   0.3333333
        k(    5) = (   0.2500000  -0.2500000  -0.0833333), wk =   0.3333333
        k(    6) = (  -0.2500000   0.2500000   0.2500000), wk =   0.3333333

     Dense  grid:  3792731 G-vectors     FFT dimensions: ( 160, 160, 320)

     Smooth grid:  1341081 G-vectors     FFT dimensions: ( 120, 120, 225)

     Largest allocated arrays     est. size (Mb)     dimensions
        Kohn-Sham Wavefunctions        38.58 Mb     (    5267,  480)
        NL pseudopotentials            76.03 Mb     (    5267,  946)
        Each V/rho on FFT grid          3.91 Mb     (  256000)
        Each G-vector array             0.90 Mb     (  118520)
        G-vector shells                 0.08 Mb     (   10286)
     Largest temporary arrays     est. size (Mb)     dimensions
        Auxiliary wavefunctions       154.31 Mb     (    5267, 1920)
        Each subspace H/S matrix       56.25 Mb     (    1920, 1920)
        Each <psi_i|beta_j> matrix      6.93 Mb     (     946,  480)
        Arrays for rho mixing          31.25 Mb     (  256000,    8)

     Initial potential from superposition of free atoms
     Check: negative starting charge=   -1.945188

     starting charge  799.16392, renormalised to  800.00000

     negative rho (up, down):  1.947E+00 0.000E+00
     Starting wfc are  654 randomized atomic wfcs

     total cpu time spent up to now is      103.3 secs

     Self-consistent Calculation

     iteration #  1     ecut=    50.00 Ry     beta=0.70
     Davidson diagonalization with overlap
     ethr =  1.00E-02,  avg # of iterations =  3.0

     Threshold (ethr) on eigenvalues was too large:
     Diagonalizing with lowered threshold

     Davidson diagonalization with overlap
     ethr =  4.86E-04,  avg # of iterations =  2.0

     negative rho (up, down):  1.932E+00 0.000E+00

     total cpu time spent up to now is      795.6 secs

     total energy              =   -7377.45913447 Ry
     Harris-Foulkes estimate   =   -7380.92835054 Ry
     estimated scf accuracy    <       4.40973418 Ry

     iteration #  2     ecut=    50.00 Ry     beta=0.70
     Davidson diagonalization with overlap
     ethr =  5.51E-04,  avg # of iterations = 11.3

     negative rho (up, down):  1.930E+00 0.000E+00

     total cpu time spent up to now is     1358.6 secs

     total energy              =   -7369.10055726 Ry
     Harris-Foulkes estimate   =   -7387.76811409 Ry
     estimated scf accuracy    <      95.68110421 Ry

     iteration #  3     ecut=    50.00 Ry     beta=0.70
     Davidson diagonalization with overlap
     ethr =  5.51E-04,  avg # of iterations =  6.0

     negative rho (up, down):  1.947E+00 0.000E+00

     total cpu time spent up to now is     1713.7 secs

     total energy              =   -7378.95680975 Ry
     Harris-Foulkes estimate   =   -7380.66485354 Ry
     estimated scf accuracy    <       6.29725184 Ry

     iteration #  4     ecut=    50.00 Ry     beta=0.70
     Davidson diagonalization with overlap
     ethr =  5.51E-04,  avg # of iterations =  3.7

     negative rho (up, down):  1.952E+00 0.000E+00

     total cpu time spent up to now is     1901.1 secs

     total energy              =   -7379.48088280 Ry
     Harris-Foulkes estimate   =   -7380.35350566 Ry
     estimated scf accuracy    <       4.81420351 Ry

     iteration #  5     ecut=    50.00 Ry     beta=0.70
     Davidson diagonalization with overlap
     ethr =  5.51E-04,  avg # of iterations =  5.0

     negative rho (up, down):  1.960E+00 0.000E+00

     total cpu time spent up to now is     2099.1 secs

     total energy              =   -7379.75670326 Ry
     Harris-Foulkes estimate   =   -7380.23699707 Ry
     estimated scf accuracy    <       3.55923691 Ry

     iteration #  6     ecut=    50.00 Ry     beta=0.70
     Davidson diagonalization with overlap
     ethr =  4.45E-04,  avg # of iterations =  3.2

     negative rho (up, down):  1.963E+00 0.000E+00

     total cpu time spent up to now is     2269.7 secs

     total energy              =   -7379.94455894 Ry
     Harris-Foulkes estimate   =   -7380.00989127 Ry
     estimated scf accuracy    <       0.23832778 Ry

     iteration #  7     ecut=    50.00 Ry     beta=0.70
     Davidson diagonalization with overlap
     ethr =  2.98E-05,  avg # of iterations =  8.8

     negative rho (up, down):  1.966E+00 0.000E+00

     total cpu time spent up to now is     2511.5 secs

     total energy              =   -7379.95896324 Ry
     Harris-Foulkes estimate   =   -7379.99994657 Ry
     estimated scf accuracy    <       0.20739195 Ry

     iteration #  8     ecut=    50.00 Ry     beta=0.70
     Davidson diagonalization with overlap
     ethr =  2.59E-05,  avg # of iterations =  4.0

     negative rho (up, down):  1.968E+00 0.000E+00

     total cpu time spent up to now is     2685.7 secs

     total energy              =   -7379.96707785 Ry
     Harris-Foulkes estimate   =   -7379.98678618 Ry
     estimated scf accuracy    <       0.07747495 Ry

     iteration #  9     ecut=    50.00 Ry     beta=0.70
     Davidson diagonalization with overlap
     ethr =  9.68E-06,  avg # of iterations = 11.8

     negative rho (up, down):  1.969E+00 0.000E+00

     total cpu time spent up to now is     2939.2 secs

     total energy              =   -7379.97131227 Ry
     Harris-Foulkes estimate   =   -7379.97952435 Ry
     estimated scf accuracy    <       0.02518544 Ry

     iteration # 10     ecut=    50.00 Ry     beta=0.70
     Davidson diagonalization with overlap
     ethr =  3.15E-06,  avg # of iterations =  7.8

     negative rho (up, down):  1.969E+00 0.000E+00

     total cpu time spent up to now is     3162.4 secs

     total energy              =   -7379.97431967 Ry
     Harris-Foulkes estimate   =   -7379.97644126 Ry
     estimated scf accuracy    <       0.00539050 Ry

     iteration # 11     ecut=    50.00 Ry     beta=0.70
     Davidson diagonalization with overlap
     ethr =  6.74E-07,  avg # of iterations =  3.0

     negative rho (up, down):  1.970E+00 0.000E+00

     total cpu time spent up to now is     3339.2 secs

     total energy              =   -7379.97496640 Ry
     Harris-Foulkes estimate   =   -7379.97609196 Ry
     estimated scf accuracy    <       0.00331809 Ry

     iteration # 12     ecut=    50.00 Ry     beta=0.70
     Davidson diagonalization with overlap
     ethr =  4.15E-07,  avg # of iterations =  2.0

     negative rho (up, down):  1.970E+00 0.000E+00

     total cpu time spent up to now is     3497.8 secs

     total energy              =   -7379.97518916 Ry
     Harris-Foulkes estimate   =   -7379.97595725 Ry
     estimated scf accuracy    <       0.00396247 Ry

     iteration # 13     ecut=    50.00 Ry     beta=0.70
     Davidson diagonalization with overlap
     ethr =  4.15E-07,  avg # of iterations =  2.0

     negative rho (up, down):  1.970E+00 0.000E+00

     total cpu time spent up to now is     3651.2 secs

     total energy              =   -7379.97550088 Ry
     Harris-Foulkes estimate   =   -7379.97568860 Ry
     estimated scf accuracy    <       0.00079233 Ry

     iteration # 14     ecut=    50.00 Ry     beta=0.70
     Davidson diagonalization with overlap
     ethr =  9.90E-08,  avg # of iterations =  2.0

     negative rho (up, down):  1.970E+00 0.000E+00

     total cpu time spent up to now is     3807.0 secs

     total energy              =   -7379.97559231 Ry
     Harris-Foulkes estimate   =   -7379.97561423 Ry
     estimated scf accuracy    <       0.00006583 Ry

     iteration # 15     ecut=    50.00 Ry     beta=0.70
     Davidson diagonalization with overlap
     ethr =  8.23E-09,  avg # of iterations =  3.0

     negative rho (up, down):  1.970E+00 0.000E+00

     total cpu time spent up to now is     3991.1 secs

     total energy              =   -7379.97558836 Ry
     Harris-Foulkes estimate   =   -7379.97562006 Ry
     estimated scf accuracy    <       0.00016958 Ry

     iteration # 16     ecut=    50.00 Ry     beta=0.70
     Davidson diagonalization with overlap
     ethr =  8.23E-09,  avg # of iterations =  2.0

     negative rho (up, down):  1.970E+00 0.000E+00

     total cpu time spent up to now is     4162.5 secs

     total energy              =   -7379.97559644 Ry
     Harris-Foulkes estimate   =   -7379.97562031 Ry
     estimated scf accuracy    <       0.00016908 Ry

     iteration # 17     ecut=    50.00 Ry     beta=0.70
     Davidson diagonalization with overlap
     ethr =  8.23E-09,  avg # of iterations =  1.0

     negative rho (up, down):  1.970E+00 0.000E+00

     total cpu time spent up to now is     4327.6 secs

     total energy              =   -7379.97560703 Ry
     Harris-Foulkes estimate   =   -7379.97560925 Ry
     estimated scf accuracy    <       0.00000772 Ry

     iteration # 18     ecut=    50.00 Ry     beta=0.70
     Davidson diagonalization with overlap
     ethr =  9.65E-10,  avg # of iterations =  2.0

     negative rho (up, down):  1.970E+00 0.000E+00

     total cpu time spent up to now is     4513.1 secs

     total energy              =   -7379.97560796 Ry
     Harris-Foulkes estimate   =   -7379.97560892 Ry
     estimated scf accuracy    <       0.00000378 Ry

     iteration # 19     ecut=    50.00 Ry     beta=0.70
     Davidson diagonalization with overlap
     ethr =  4.72E-10,  avg # of iterations =  3.0

     negative rho (up, down):  1.970E+00 0.000E+00

     total cpu time spent up to now is     4706.0 secs

     total energy              =   -7379.97560824 Ry
     Harris-Foulkes estimate   =   -7379.97560866 Ry
     estimated scf accuracy    <       0.00000134 Ry

     iteration # 20     ecut=    50.00 Ry     beta=0.70
     Davidson diagonalization with overlap
     ethr =  1.67E-10,  avg # of iterations =  2.0

     negative rho (up, down):  1.970E+00 0.000E+00

     total cpu time spent up to now is     4885.3 secs

     total energy              =   -7379.97560830 Ry
     Harris-Foulkes estimate   =   -7379.97560873 Ry
     estimated scf accuracy    <       0.00000190 Ry

     iteration # 21     ecut=    50.00 Ry     beta=0.70
     Davidson diagonalization with overlap
     ethr =  1.67E-10,  avg # of iterations =  2.0

     negative rho (up, down):  1.970E+00 0.000E+00

     total cpu time spent up to now is     5056.9 secs

     total energy              =   -7379.97560848 Ry
     Harris-Foulkes estimate   =   -7379.97560854 Ry
     estimated scf accuracy    <       0.00000016 Ry

     iteration # 22     ecut=    50.00 Ry     beta=0.70
     Davidson diagonalization with overlap
     ethr =  1.99E-11,  avg # of iterations =  3.0

     negative rho (up, down):  1.970E+00 0.000E+00

     total cpu time spent up to now is     5248.4 secs

     total energy              =   -7379.97560850 Ry
     Harris-Foulkes estimate   =   -7379.97560852 Ry
     estimated scf accuracy    <       0.00000004 Ry

     iteration # 23     ecut=    50.00 Ry     beta=0.70
     Davidson diagonalization with overlap
     ethr =  4.43E-12,  avg # of iterations =  2.5

     negative rho (up, down):  1.970E+00 0.000E+00

     total cpu time spent up to now is     5454.1 secs

     total energy              =   -7379.97560850 Ry
     Harris-Foulkes estimate   =   -7379.97560852 Ry
     estimated scf accuracy    <       0.00000007 Ry

     iteration # 24     ecut=    50.00 Ry     beta=0.70
     Davidson diagonalization with overlap
     ethr =  4.43E-12,  avg # of iterations =  2.0

     negative rho (up, down):  1.970E+00 0.000E+00

     total cpu time spent up to now is     5633.7 secs

     total energy              =   -7379.97560851 Ry
     Harris-Foulkes estimate   =   -7379.97560852 Ry
     estimated scf accuracy    <       0.00000004 Ry

     iteration # 25     ecut=    50.00 Ry     beta=0.70
     Davidson diagonalization with overlap
     ethr =  4.41E-12,  avg # of iterations =  2.0

     negative rho (up, down):  1.970E+00 0.000E+00

     total cpu time spent up to now is     5816.9 secs

     End of self-consistent calculation

          k = 0.2500 0.2500 0.0833 (167653 PWs)   bands (ev):

   -19.6965  -7.6651  -6.8237  -6.2952  -6.2933  -5.8569  -5.4536  -5.3556
    -5.3543  -5.1334  -5.1325  -5.0380  -5.0352  -4.9040  -4.8947  -4.7862
    -4.6979  -4.6926  -4.6723  -4.6713  -4.4924  -4.4899  -4.4890  -4.4672
    -4.4593  -4.4576  -4.4531  -4.4077  -4.4008  -4.3990  -4.3979  -4.3343
    -4.3096  -4.3056  -4.2523  -4.2465  -4.2450  -4.2112  -4.2087  -4.1953
    -4.1898  -4.1746  -4.1710  -4.1375  -4.1052  -4.1025  -4.1001  -4.0958
    -4.0953  -4.0771  -4.0415  -4.0361  -4.0151  -4.0055  -4.0047  -4.0015
    -4.0008  -3.9934  -3.9682  -3.9635  -3.9371  -3.9007  -3.8730  -3.8584
    -3.8447  -3.8346  -3.8309  -3.8254  -3.8083  -3.7994  -3.7945  -3.7478
    -3.7440  -3.7417  -3.7397  -3.6568  -3.6547  -3.6351  -3.6327  -3.6012
    -3.5975  -3.5803  -3.5592  -3.5563  -3.5143  -3.5126  -3.5113  -3.5089
    -3.4883  -3.4855  -3.4101  -3.4048  -3.4037  -3.3878  -3.3769  -3.3744
    -3.3594  -3.3580  -3.3529  -3.3514  -3.3097  -3.3087  -3.2900  -3.2863
    -3.2524  -3.2487  -3.2256  -3.2037  -3.2010  -3.1571  -3.1550  -3.1243
    -3.0987  -3.0948  -3.0937  -3.0933  -3.0891  -3.0885  -3.0665  -3.0521
    -3.0167  -3.0157  -2.9955  -2.9721  -2.9680  -2.9662  -2.9609  -2.9592
    -2.9564  -2.9560  -2.9250  -2.9206  -2.9192  -2.9155  -2.9128  -2.9095
    -2.8542  -2.8517  -2.8450  -2.8432  -2.8240  -2.8223  -2.8182  -2.7271
    -2.7203  -2.7168  -2.7147  -2.7068  -2.7035  -2.7017  -2.7007  -2.6919
    -2.6904  -2.6854  -2.6759  -2.6732  -2.6696  -2.6648  -2.6572  -2.6530
    -2.6474  -2.6290  -2.6210  -2.6147  -2.6016  -2.5995  -2.5854  -2.5830
    -2.5738  -2.5730  -2.5524  -2.5493  -2.5410  -2.5390  -2.5359  -2.5110
    -2.5004  -2.4982  -2.4413  -2.4361  -2.4297  -2.4261  -2.4163  -2.4103
    -2.3994  -2.3860  -2.3812  -2.3797  -2.3701  -2.3641  -2.3555  -2.3429
    -2.3384  -2.3237  -2.3140  -2.3045  -2.3025  -2.2963  -2.2920  -2.2878
    -2.2652  -2.2463  -2.2027  -2.1734  -2.1568  -2.1520  -2.1497  -2.1404
    -2.1148  -2.0880  -2.0845  -2.0557  -2.0475  -2.0445  -2.0274  -2.0220
    -2.0058  -2.0024  -1.9926  -1.9893  -1.9562  -1.9557  -1.9440  -1.9409
    -1.9404  -1.9367  -1.9310  -1.9155  -1.9061  -1.9033  -1.9020  -1.8990
    -1.8973  -1.8954  -1.8841  -1.8821  -1.8626  -1.8615  -1.8560  -1.8451
    -1.8421  -1.8399  -1.8393  -1.8340  -1.8297  -1.8178  -1.7935  -1.7670
    -1.7468  -1.7327  -1.7299  -1.6883  -1.6851  -1.6843  -1.6765  -1.6706
    -1.6610  -1.6596  -1.6534  -1.6446  -1.6420  -1.6245  -1.6220  -1.6091
    -1.5846  -1.5820  -1.5659  -1.5459  -1.5399  -1.5086  -1.5017  -1.4556
    -1.4523  -1.4336  -1.4168  -1.4095  -1.4061  -1.4023  -1.4000  -1.3889
    -1.3814  -1.3810  -1.3801  -1.3789  -1.3778  -1.3756  -1.3734  -1.3533
    -1.3496  -1.3387  -1.3170  -1.3159  -1.3140  -1.2933  -1.2912  -1.2869
    -1.2861  -1.2815  -1.2622  -1.2476  -1.2389  -1.2209  -1.2194  -1.2016
    -1.1996  -1.1868  -1.1817  -1.1620  -1.1584  -1.1534  -1.1404  -1.1152
    -1.1102  -1.1026  -1.1015  -1.0986  -1.0886  -1.0729  -1.0724  -1.0618
    -1.0532  -1.0513  -1.0417  -1.0399  -1.0380  -1.0312  -1.0285  -1.0168
    -1.0157  -1.0082  -1.0073  -1.0021  -0.9973  -0.9832  -0.9770  -0.9426
    -0.9403  -0.9388  -0.9362  -0.9300  -0.9245  -0.9042  -0.8914  -0.8897
    -0.8703  -0.8655  -0.8624  -0.8595  -0.8544  -0.8451  -0.8309  -0.8103
    -0.8054  -0.7983  -0.7959  -0.7781  -0.7774  -0.7627  -0.7403  -0.7304
    -0.7154  -0.7117  -0.6758  -0.6752  -0.6725  -0.6694  -0.6690  -0.6640
    -0.6629  -0.6601  -0.6569  -0.6553  -0.6268  -0.6251  -0.6223  -0.6205
    -0.6190  -0.6100  -0.6059  -0.5791  -0.5751  -0.3227  -0.3068  -0.2641
    -0.2474  -0.2296  -0.1654  -0.0214  -0.0204   0.0223   0.2928   0.3018
     0.6336   0.6427   0.6776   0.6826   0.7280   0.7361   0.8875   0.9008
     1.0151   1.0192   1.1381   1.6291   1.6655   1.6746   1.7101   1.7108
     1.8427   1.8545   1.9027   1.9103   2.0849   2.0902   2.3681   2.3963
     2.4043   2.4211   2.8485   2.8571   2.8755   2.8778   2.8947   2.8964
     2.9593   2.9622   3.1104   3.2358   3.2388   3.4236   3.4273   3.5349
     3.6048   3.6071   3.8997   3.9049   3.9594   3.9645   3.9672   4.0982
     4.1117   4.1204   4.1438   4.4053   4.4078   4.4445   4.4467   4.5549
     4.5580   4.6220   4.6333   4.8952   5.4608   5.5014   5.5205   5.5911
     5.6782   5.7131   5.7169   5.7860   5.7881   5.8045   5.8107   5.8748
     5.9107   5.9328   6.0892   6.1837   6.2036   6.2067   6.2126   6.2172
     6.2263   6.2348   6.3303   6.3831   6.3940   6.4074   6.4856   6.5305

          k = 0.2500 0.2500-0.2500 (167588 PWs)   bands (ev):

   -19.6965  -7.6651  -6.8237  -6.2952  -6.2933  -5.8569  -5.4536  -5.3556
    -5.3543  -5.1334  -5.1325  -5.0380  -5.0352  -4.9040  -4.8947  -4.7862
    -4.6979  -4.6926  -4.6723  -4.6713  -4.4924  -4.4899  -4.4890  -4.4672
    -4.4593  -4.4576  -4.4531  -4.4077  -4.4008  -4.3990  -4.3979  -4.3343
    -4.3096  -4.3056  -4.2523  -4.2465  -4.2450  -4.2112  -4.2087  -4.1953
    -4.1898  -4.1746  -4.1711  -4.1375  -4.1052  -4.1025  -4.1001  -4.0958
    -4.0953  -4.0771  -4.0415  -4.0361  -4.0151  -4.0055  -4.0047  -4.0015
    -4.0008  -3.9934  -3.9682  -3.9635  -3.9371  -3.9007  -3.8730  -3.8584
    -3.8447  -3.8346  -3.8309  -3.8254  -3.8083  -3.7994  -3.7945  -3.7478
    -3.7440  -3.7417  -3.7397  -3.6568  -3.6547  -3.6351  -3.6328  -3.6012
    -3.5975  -3.5803  -3.5592  -3.5563  -3.5143  -3.5126  -3.5113  -3.5089
    -3.4883  -3.4855  -3.4101  -3.4048  -3.4037  -3.3879  -3.3769  -3.3744
    -3.3594  -3.3580  -3.3528  -3.3514  -3.3097  -3.3087  -3.2900  -3.2863
    -3.2524  -3.2487  -3.2256  -3.2037  -3.2010  -3.1571  -3.1550  -3.1243
    -3.0987  -3.0948  -3.0937  -3.0932  -3.0891  -3.0885  -3.0665  -3.0522
    -3.0167  -3.0157  -2.9955  -2.9721  -2.9680  -2.9662  -2.9609  -2.9592
    -2.9564  -2.9560  -2.9250  -2.9206  -2.9192  -2.9155  -2.9128  -2.9095
    -2.8542  -2.8517  -2.8450  -2.8432  -2.8240  -2.8223  -2.8182  -2.7271
    -2.7203  -2.7168  -2.7147  -2.7068  -2.7035  -2.7017  -2.7007  -2.6919
    -2.6903  -2.6854  -2.6759  -2.6732  -2.6696  -2.6648  -2.6572  -2.6530
    -2.6474  -2.6290  -2.6210  -2.6147  -2.6016  -2.5995  -2.5854  -2.5830
    -2.5738  -2.5730  -2.5524  -2.5493  -2.5410  -2.5390  -2.5359  -2.5110
    -2.5004  -2.4982  -2.4413  -2.4361  -2.4297  -2.4261  -2.4163  -2.4103
    -2.3994  -2.3860  -2.3812  -2.3797  -2.3701  -2.3641  -2.3555  -2.3429
    -2.3384  -2.3237  -2.3140  -2.3045  -2.3025  -2.2963  -2.2920  -2.2878
    -2.2652  -2.2463  -2.2027  -2.1734  -2.1568  -2.1520  -2.1497  -2.1404
    -2.1148  -2.0880  -2.0845  -2.0557  -2.0475  -2.0445  -2.0274  -2.0220
    -2.0058  -2.0024  -1.9926  -1.9893  -1.9562  -1.9557  -1.9440  -1.9409
    -1.9404  -1.9367  -1.9310  -1.9155  -1.9061  -1.9033  -1.9020  -1.8990
    -1.8973  -1.8954  -1.8841  -1.8821  -1.8626  -1.8615  -1.8560  -1.8451
    -1.8421  -1.8399  -1.8393  -1.8340  -1.8297  -1.8178  -1.7935  -1.7670
    -1.7468  -1.7327  -1.7299  -1.6883  -1.6851  -1.6843  -1.6765  -1.6706
    -1.6610  -1.6596  -1.6534  -1.6446  -1.6420  -1.6245  -1.6220  -1.6091
    -1.5846  -1.5820  -1.5659  -1.5459  -1.5399  -1.5086  -1.5017  -1.4556
    -1.4523  -1.4336  -1.4168  -1.4095  -1.4061  -1.4023  -1.4000  -1.3889
    -1.3814  -1.3810  -1.3801  -1.3789  -1.3778  -1.3756  -1.3734  -1.3533
    -1.3496  -1.3387  -1.3170  -1.3159  -1.3140  -1.2933  -1.2912  -1.2869
    -1.2861  -1.2815  -1.2622  -1.2476  -1.2389  -1.2209  -1.2194  -1.2016
    -1.1996  -1.1868  -1.1817  -1.1620  -1.1584  -1.1534  -1.1404  -1.1152
    -1.1102  -1.1026  -1.1015  -1.0986  -1.0886  -1.0729  -1.0724  -1.0617
    -1.0532  -1.0513  -1.0417  -1.0399  -1.0380  -1.0312  -1.0285  -1.0168
    -1.0157  -1.0082  -1.0073  -1.0021  -0.9973  -0.9832  -0.9770  -0.9426
    -0.9403  -0.9388  -0.9362  -0.9300  -0.9245  -0.9041  -0.8914  -0.8897
    -0.8703  -0.8655  -0.8624  -0.8595  -0.8544  -0.8451  -0.8309  -0.8103
    -0.8054  -0.7983  -0.7959  -0.7781  -0.7774  -0.7627  -0.7403  -0.7304
    -0.7154  -0.7117  -0.6758  -0.6752  -0.6725  -0.6694  -0.6690  -0.6640
    -0.6629  -0.6601  -0.6569  -0.6553  -0.6268  -0.6251  -0.6223  -0.6205
    -0.6190  -0.6100  -0.6059  -0.5791  -0.5751  -0.3227  -0.3068  -0.2641
    -0.2474  -0.2296  -0.1654  -0.0214  -0.0204   0.0223   0.2928   0.3018
     0.6336   0.6427   0.6776   0.6826   0.7280   0.7361   0.8875   0.9008
     1.0151   1.0192   1.1381   1.6291   1.6655   1.6747   1.7101   1.7108
     1.8427   1.8545   1.9027   1.9103   2.0849   2.0902   2.3681   2.3963
     2.4043   2.4211   2.8485   2.8571   2.8755   2.8778   2.8947   2.8964
     2.9593   2.9622   3.1105   3.2358   3.2388   3.4236   3.4273   3.5349
     3.6048   3.6071   3.8997   3.9049   3.9594   3.9645   3.9672   4.0982
     4.1117   4.1204   4.1439   4.4053   4.4078   4.4445   4.4467   4.5549
     4.5580   4.6220   4.6333   4.8953   5.4579   5.5014   5.5195   5.5912
     5.6591   5.7127   5.7162   5.7849   5.7881   5.8045   5.8101   5.8690
     5.9135   5.9761   6.1452   6.1582   6.1864   6.2039   6.2081   6.2165
     6.2261   6.2337   6.3154   6.3842   6.4024   6.4825   6.5263   6.5526

          k =-0.2500-0.2500 0.0833 (167653 PWs)   bands (ev):

   -19.6965  -7.6651  -6.8237  -6.2952  -6.2933  -5.8569  -5.4536  -5.3556
    -5.3543  -5.1334  -5.1325  -5.0380  -5.0352  -4.9040  -4.8947  -4.7862
    -4.6979  -4.6926  -4.6723  -4.6713  -4.4924  -4.4899  -4.4890  -4.4672
    -4.4593  -4.4576  -4.4531  -4.4077  -4.4008  -4.3990  -4.3979  -4.3343
    -4.3096  -4.3056  -4.2523  -4.2465  -4.2450  -4.2112  -4.2087  -4.1953
    -4.1898  -4.1746  -4.1710  -4.1375  -4.1052  -4.1025  -4.1001  -4.0958
    -4.0953  -4.0771  -4.0415  -4.0361  -4.0151  -4.0055  -4.0047  -4.0015
    -4.0008  -3.9934  -3.9682  -3.9635  -3.9371  -3.9007  -3.8730  -3.8584
    -3.8447  -3.8346  -3.8309  -3.8254  -3.8083  -3.7994  -3.7945  -3.7478
    -3.7440  -3.7417  -3.7397  -3.6568  -3.6547  -3.6351  -3.6327  -3.6012
    -3.5975  -3.5803  -3.5592  -3.5563  -3.5143  -3.5126  -3.5113  -3.5089
    -3.4883  -3.4855  -3.4101  -3.4048  -3.4037  -3.3878  -3.3769  -3.3744
    -3.3594  -3.3580  -3.3529  -3.3514  -3.3097  -3.3087  -3.2900  -3.2863
    -3.2524  -3.2487  -3.2256  -3.2037  -3.2010  -3.1571  -3.1550  -3.1243
    -3.0987  -3.0948  -3.0937  -3.0933  -3.0891  -3.0885  -3.0665  -3.0521
    -3.0167  -3.0157  -2.9955  -2.9721  -2.9680  -2.9662  -2.9609  -2.9592
    -2.9564  -2.9560  -2.9250  -2.9206  -2.9192  -2.9155  -2.9128  -2.9095
    -2.8542  -2.8517  -2.8450  -2.8432  -2.8240  -2.8223  -2.8182  -2.7271
    -2.7203  -2.7168  -2.7147  -2.7068  -2.7035  -2.7017  -2.7007  -2.6919
    -2.6904  -2.6854  -2.6759  -2.6732  -2.6696  -2.6648  -2.6572  -2.6530
    -2.6474  -2.6290  -2.6210  -2.6147  -2.6016  -2.5995  -2.5854  -2.5830
    -2.5738  -2.5730  -2.5524  -2.5493  -2.5410  -2.5390  -2.5359  -2.5110
    -2.5004  -2.4982  -2.4413  -2.4361  -2.4297  -2.4261  -2.4163  -2.4103
    -2.3994  -2.3860  -2.3812  -2.3797  -2.3701  -2.3641  -2.3555  -2.3429
    -2.3384  -2.3237  -2.3140  -2.3045  -2.3025  -2.2963  -2.2920  -2.2878
    -2.2652  -2.2463  -2.2027  -2.1734  -2.1568  -2.1520  -2.1497  -2.1404
    -2.1148  -2.0880  -2.0845  -2.0557  -2.0475  -2.0445  -2.0274  -2.0220
    -2.0058  -2.0024  -1.9926  -1.9893  -1.9562  -1.9557  -1.9440  -1.9409
    -1.9404  -1.9367  -1.9310  -1.9155  -1.9061  -1.9033  -1.9020  -1.8990
    -1.8973  -1.8954  -1.8841  -1.8821  -1.8626  -1.8615  -1.8560  -1.8451
    -1.8421  -1.8399  -1.8393  -1.8340  -1.8297  -1.8178  -1.7935  -1.7670
    -1.7468  -1.7327  -1.7299  -1.6883  -1.6851  -1.6843  -1.6765  -1.6706
    -1.6610  -1.6596  -1.6534  -1.6446  -1.6420  -1.6245  -1.6220  -1.6091
    -1.5846  -1.5820  -1.5659  -1.5459  -1.5399  -1.5086  -1.5017  -1.4556
    -1.4523  -1.4336  -1.4168  -1.4095  -1.4061  -1.4023  -1.4000  -1.3889
    -1.3814  -1.3810  -1.3801  -1.3789  -1.3778  -1.3756  -1.3734  -1.3533
    -1.3496  -1.3387  -1.3170  -1.3159  -1.3140  -1.2933  -1.2912  -1.2869
    -1.2861  -1.2815  -1.2622  -1.2476  -1.2389  -1.2209  -1.2194  -1.2016
    -1.1996  -1.1868  -1.1817  -1.1620  -1.1584  -1.1534  -1.1404  -1.1152
    -1.1102  -1.1026  -1.1015  -1.0986  -1.0886  -1.0729  -1.0724  -1.0618
    -1.0532  -1.0513  -1.0417  -1.0399  -1.0380  -1.0312  -1.0285  -1.0168
    -1.0157  -1.0082  -1.0073  -1.0021  -0.9973  -0.9832  -0.9770  -0.9426
    -0.9403  -0.9388  -0.9362  -0.9300  -0.9245  -0.9042  -0.8914  -0.8897
    -0.8703  -0.8655  -0.8624  -0.8595  -0.8544  -0.8451  -0.8309  -0.8103
    -0.8054  -0.7983  -0.7959  -0.7781  -0.7774  -0.7627  -0.7403  -0.7304
    -0.7154  -0.7117  -0.6758  -0.6752  -0.6725  -0.6694  -0.6690  -0.6640
    -0.6629  -0.6601  -0.6569  -0.6553  -0.6268  -0.6251  -0.6223  -0.6205
    -0.6190  -0.6100  -0.6059  -0.5791  -0.5751  -0.3227  -0.3068  -0.2641
    -0.2474  -0.2296  -0.1654  -0.0214  -0.0204   0.0223   0.2928   0.3018
     0.6336   0.6427   0.6776   0.6826   0.7280   0.7361   0.8875   0.9008
     1.0151   1.0192   1.1381   1.6291   1.6655   1.6746   1.7101   1.7108
     1.8427   1.8545   1.9027   1.9103   2.0849   2.0902   2.3681   2.3963
     2.4043   2.4211   2.8485   2.8571   2.8755   2.8778   2.8947   2.8964
     2.9593   2.9622   3.1104   3.2358   3.2388   3.4236   3.4273   3.5349
     3.6048   3.6071   3.8997   3.9049   3.9594   3.9645   3.9672   4.0982
     4.1117   4.1204   4.1438   4.4053   4.4078   4.4445   4.4467   4.5549
     4.5580   4.6220   4.6333   4.8952   5.4606   5.5014   5.5204   5.5911
     5.6789   5.7133   5.7174   5.7859   5.7880   5.8045   5.8107   5.8706
     5.9123   5.9340   6.0907   6.1837   6.2036   6.2063   6.2131   6.2169
     6.2260   6.2348   6.3352   6.3823   6.3948   6.4024   6.4813   6.5299

          k =-0.2500 0.2500-0.0833 (167653 PWs)   bands (ev):

   -19.6965  -7.6651  -6.8236  -6.2961  -6.2928  -5.8565  -5.4535  -5.3567
    -5.3527  -5.1337  -5.1329  -5.0394  -5.0348  -4.9028  -4.8950  -4.7854
    -4.6976  -4.6936  -4.6739  -4.6716  -4.4926  -4.4916  -4.4874  -4.4678
    -4.4594  -4.4579  -4.4531  -4.4053  -4.4005  -4.3998  -4.3963  -4.3342
    -4.3086  -4.3057  -4.2526  -4.2464  -4.2448  -4.2122  -4.2066  -4.1951
    -4.1898  -4.1738  -4.1711  -4.1386  -4.1068  -4.1025  -4.0998  -4.0972
    -4.0940  -4.0680  -4.0560  -4.0357  -4.0137  -4.0063  -4.0034  -4.0018
    -4.0008  -3.9932  -3.9667  -3.9605  -3.9243  -3.9030  -3.8885  -3.8674
    -3.8371  -3.8325  -3.8315  -3.8241  -3.8086  -3.7984  -3.7952  -3.7479
    -3.7452  -3.7427  -3.7391  -3.6584  -3.6528  -3.6368  -3.6303  -3.6010
    -3.5986  -3.5803  -3.5593  -3.5507  -3.5155  -3.5123  -3.5111  -3.5089
    -3.4903  -3.4842  -3.4124  -3.4062  -3.4036  -3.3868  -3.3778  -3.3741
    -3.3606  -3.3572  -3.3524  -3.3515  -3.3105  -3.3075  -3.2892  -3.2857
    -3.2524  -3.2483  -3.2254  -3.2049  -3.2015  -3.1582  -3.1542  -3.1237
    -3.0976  -3.0941  -3.0937  -3.0927  -3.0901  -3.0885  -3.0669  -3.0518
    -3.0169  -3.0161  -2.9955  -2.9726  -2.9677  -2.9651  -2.9618  -2.9577
    -2.9568  -2.9560  -2.9243  -2.9210  -2.9185  -2.9161  -2.9131  -2.9093
    -2.8552  -2.8516  -2.8480  -2.8428  -2.8237  -2.8225  -2.8181  -2.7280
    -2.7209  -2.7183  -2.7151  -2.7066  -2.7048  -2.7022  -2.7004  -2.6914
    -2.6907  -2.6852  -2.6783  -2.6731  -2.6700  -2.6648  -2.6559  -2.6549
    -2.6474  -2.6286  -2.6197  -2.6137  -2.6011  -2.5993  -2.5876  -2.5830
    -2.5748  -2.5718  -2.5525  -2.5510  -2.5421  -2.5393  -2.5352  -2.5039
    -2.4998  -2.4983  -2.4419  -2.4364  -2.4310  -2.4222  -2.4180  -2.4078
    -2.3908  -2.3866  -2.3810  -2.3792  -2.3694  -2.3637  -2.3535  -2.3458
    -2.3362  -2.3221  -2.3125  -2.3069  -2.3009  -2.2984  -2.2911  -2.2857
    -2.2658  -2.2459  -2.1987  -2.1771  -2.1578  -2.1500  -2.1476  -2.1407
    -2.1022  -2.0895  -2.0823  -2.0618  -2.0549  -2.0437  -2.0361  -2.0233
    -2.0074  -2.0003  -1.9927  -1.9811  -1.9695  -1.9519  -1.9485  -1.9416
    -1.9406  -1.9365  -1.9287  -1.9205  -1.9060  -1.9030  -1.9019  -1.8979
    -1.8971  -1.8941  -1.8838  -1.8791  -1.8636  -1.8597  -1.8590  -1.8472
    -1.8434  -1.8402  -1.8363  -1.8327  -1.8308  -1.8234  -1.7951  -1.7829
    -1.7523  -1.7344  -1.7289  -1.6878  -1.6863  -1.6839  -1.6747  -1.6694
    -1.6610  -1.6568  -1.6532  -1.6475  -1.6418  -1.6278  -1.6215  -1.5905
    -1.5858  -1.5722  -1.5654  -1.5474  -1.5439  -1.5091  -1.4967  -1.4559
    -1.4538  -1.4345  -1.4143  -1.4088  -1.4069  -1.4058  -1.3978  -1.3907
    -1.3866  -1.3797  -1.3789  -1.3787  -1.3778  -1.3757  -1.3737  -1.3567
    -1.3496  -1.3389  -1.3173  -1.3157  -1.3077  -1.2961  -1.2912  -1.2877
    -1.2855  -1.2818  -1.2650  -1.2481  -1.2334  -1.2218  -1.2193  -1.2011
    -1.1952  -1.1912  -1.1786  -1.1614  -1.1572  -1.1527  -1.1433  -1.1180
    -1.1086  -1.1037  -1.1016  -1.0980  -1.0880  -1.0758  -1.0719  -1.0612
    -1.0562  -1.0490  -1.0432  -1.0402  -1.0359  -1.0314  -1.0282  -1.0179
    -1.0118  -1.0104  -1.0076  -1.0017  -0.9996  -0.9846  -0.9744  -0.9414
    -0.9384  -0.9369  -0.9355  -0.9310  -0.9267  -0.9033  -0.8921  -0.8840
    -0.8723  -0.8652  -0.8626  -0.8555  -0.8526  -0.8454  -0.8344  -0.8136
    -0.8012  -0.7976  -0.7930  -0.7790  -0.7767  -0.7623  -0.7396  -0.7303
    -0.7155  -0.7105  -0.6769  -0.6757  -0.6735  -0.6694  -0.6660  -0.6652
    -0.6629  -0.6619  -0.6570  -0.6564  -0.6278  -0.6238  -0.6225  -0.6205
    -0.6194  -0.6095  -0.6062  -0.5817  -0.5702  -0.3233  -0.3066  -0.2670
    -0.2401  -0.2308  -0.1734  -0.0241  -0.0194   0.0210   0.2920   0.3046
     0.6280   0.6476   0.6765   0.6836   0.7251   0.7344   0.8823   0.9052
     1.0150   1.0200   1.1398   1.6262   1.6735   1.6752   1.7090   1.7129
     1.8299   1.8628   1.8978   1.9196   2.0811   2.0929   2.3694   2.3890
     2.4125   2.4198   2.8335   2.8630   2.8758   2.8849   2.8930   2.8988
     2.9579   2.9632   3.1063   3.2254   3.2514   3.4224   3.4288   3.5333
     3.5968   3.6160   3.8892   3.9115   3.9583   3.9650   3.9738   4.0999
     4.1048   4.1159   4.1481   4.4000   4.4104   4.4426   4.4509   4.5514
     4.5611   4.6102   4.6502   4.8964   5.4522   5.5088   5.5233   5.5889
     5.6796   5.7039   5.7233   5.7854   5.7953   5.7988   5.8071   5.8773
     5.9166   5.9277   6.0914   6.1891   6.1964   6.2075   6.2118   6.2192
     6.2213   6.2355   6.3328   6.3805   6.3920   6.4025   6.4970   6.5245

          k = 0.2500-0.2500-0.0833 (167653 PWs)   bands (ev):

   -19.6965  -7.6651  -6.8236  -6.2961  -6.2928  -5.8565  -5.4535  -5.3567
    -5.3527  -5.1337  -5.1329  -5.0394  -5.0348  -4.9028  -4.8950  -4.7854
    -4.6976  -4.6936  -4.6739  -4.6716  -4.4926  -4.4916  -4.4874  -4.4678
    -4.4594  -4.4579  -4.4531  -4.4053  -4.4005  -4.3998  -4.3963  -4.3342
    -4.3086  -4.3057  -4.2526  -4.2464  -4.2448  -4.2122  -4.2066  -4.1951
    -4.1898  -4.1738  -4.1711  -4.1386  -4.1068  -4.1025  -4.0998  -4.0972
    -4.0940  -4.0680  -4.0560  -4.0357  -4.0137  -4.0063  -4.0034  -4.0018
    -4.0008  -3.9932  -3.9667  -3.9605  -3.9243  -3.9030  -3.8885  -3.8674
    -3.8371  -3.8325  -3.8315  -3.8241  -3.8086  -3.7984  -3.7952  -3.7479
    -3.7452  -3.7427  -3.7391  -3.6584  -3.6528  -3.6368  -3.6303  -3.6010
    -3.5986  -3.5803  -3.5593  -3.5507  -3.5155  -3.5123  -3.5111  -3.5089
    -3.4903  -3.4842  -3.4124  -3.4062  -3.4036  -3.3868  -3.3778  -3.3741
    -3.3606  -3.3572  -3.3524  -3.3515  -3.3105  -3.3075  -3.2892  -3.2857
    -3.2524  -3.2483  -3.2254  -3.2049  -3.2015  -3.1582  -3.1542  -3.1237
    -3.0976  -3.0941  -3.0937  -3.0927  -3.0901  -3.0885  -3.0669  -3.0518
    -3.0169  -3.0161  -2.9955  -2.9726  -2.9677  -2.9651  -2.9618  -2.9577
    -2.9568  -2.9560  -2.9243  -2.9210  -2.9185  -2.9161  -2.9131  -2.9093
    -2.8552  -2.8516  -2.8480  -2.8428  -2.8237  -2.8225  -2.8181  -2.7280
    -2.7209  -2.7183  -2.7151  -2.7066  -2.7048  -2.7022  -2.7004  -2.6914
    -2.6907  -2.6852  -2.6783  -2.6731  -2.6700  -2.6648  -2.6559  -2.6549
    -2.6474  -2.6286  -2.6197  -2.6137  -2.6011  -2.5993  -2.5876  -2.5830
    -2.5748  -2.5718  -2.5525  -2.5510  -2.5421  -2.5393  -2.5352  -2.5039
    -2.4998  -2.4983  -2.4419  -2.4364  -2.4310  -2.4222  -2.4180  -2.4078
    -2.3908  -2.3866  -2.3810  -2.3792  -2.3694  -2.3637  -2.3535  -2.3458
    -2.3362  -2.3221  -2.3125  -2.3069  -2.3009  -2.2984  -2.2911  -2.2857
    -2.2658  -2.2459  -2.1987  -2.1771  -2.1578  -2.1500  -2.1476  -2.1407
    -2.1022  -2.0895  -2.0823  -2.0618  -2.0549  -2.0437  -2.0360  -2.0233
    -2.0074  -2.0003  -1.9927  -1.9811  -1.9695  -1.9519  -1.9485  -1.9416
    -1.9406  -1.9365  -1.9287  -1.9205  -1.9060  -1.9030  -1.9019  -1.8979
    -1.8971  -1.8941  -1.8838  -1.8791  -1.8636  -1.8597  -1.8590  -1.8472
    -1.8434  -1.8402  -1.8363  -1.8327  -1.8308  -1.8234  -1.7951  -1.7829
    -1.7523  -1.7344  -1.7289  -1.6878  -1.6863  -1.6839  -1.6747  -1.6694
    -1.6610  -1.6568  -1.6532  -1.6475  -1.6418  -1.6278  -1.6215  -1.5905
    -1.5858  -1.5722  -1.5654  -1.5474  -1.5439  -1.5091  -1.4967  -1.4559
    -1.4538  -1.4345  -1.4143  -1.4088  -1.4069  -1.4058  -1.3978  -1.3907
    -1.3866  -1.3797  -1.3789  -1.3787  -1.3778  -1.3757  -1.3737  -1.3567
    -1.3496  -1.3389  -1.3173  -1.3157  -1.3077  -1.2961  -1.2912  -1.2877
    -1.2855  -1.2818  -1.2650  -1.2481  -1.2334  -1.2218  -1.2193  -1.2011
    -1.1952  -1.1912  -1.1786  -1.1614  -1.1572  -1.1527  -1.1434  -1.1180
    -1.1086  -1.1037  -1.1016  -1.0980  -1.0880  -1.0758  -1.0719  -1.0612
    -1.0562  -1.0490  -1.0432  -1.0402  -1.0359  -1.0314  -1.0282  -1.0179
    -1.0118  -1.0104  -1.0076  -1.0017  -0.9996  -0.9846  -0.9744  -0.9414
    -0.9384  -0.9369  -0.9355  -0.9310  -0.9267  -0.9033  -0.8921  -0.8840
    -0.8723  -0.8652  -0.8626  -0.8555  -0.8526  -0.8454  -0.8344  -0.8136
    -0.8012  -0.7976  -0.7930  -0.7790  -0.7767  -0.7623  -0.7396  -0.7303
    -0.7155  -0.7105  -0.6769  -0.6757  -0.6735  -0.6694  -0.6660  -0.6652
    -0.6629  -0.6619  -0.6570  -0.6564  -0.6278  -0.6238  -0.6225  -0.6205
    -0.6194  -0.6095  -0.6062  -0.5817  -0.5702  -0.3233  -0.3066  -0.2670
    -0.2401  -0.2308  -0.1734  -0.0241  -0.0194   0.0210   0.2920   0.3046
     0.6280   0.6476   0.6765   0.6836   0.7251   0.7344   0.8823   0.9052
     1.0150   1.0200   1.1398   1.6262   1.6735   1.6752   1.7090   1.7129
     1.8299   1.8628   1.8978   1.9196   2.0811   2.0929   2.3694   2.3890
     2.4125   2.4198   2.8335   2.8630   2.8758   2.8849   2.8930   2.8988
     2.9579   2.9632   3.1063   3.2254   3.2514   3.4224   3.4288   3.5333
     3.5968   3.6160   3.8892   3.9115   3.9583   3.9650   3.9738   4.0999
     4.1048   4.1159   4.1481   4.4000   4.4104   4.4426   4.4509   4.5514
     4.5611   4.6102   4.6502   4.8964   5.4522   5.5088   5.5234   5.5890
     5.6795   5.7036   5.7230   5.7852   5.7956   5.7992   5.8072   5.8769
     5.9168   5.9266   6.0932   6.1892   6.1966   6.2074   6.2115   6.2192
     6.2216   6.2352   6.3282   6.3760   6.3902   6.4114   6.4995   6.5267

          k =-0.2500 0.2500 0.2500 (167588 PWs)   bands (ev):

   -19.6965  -7.6651  -6.8236  -6.2961  -6.2928  -5.8565  -5.4535  -5.3567
    -5.3527  -5.1337  -5.1328  -5.0394  -5.0348  -4.9028  -4.8950  -4.7854
    -4.6976  -4.6936  -4.6739  -4.6716  -4.4926  -4.4916  -4.4874  -4.4678
    -4.4594  -4.4579  -4.4531  -4.4053  -4.4005  -4.3998  -4.3963  -4.3342
    -4.3086  -4.3057  -4.2526  -4.2464  -4.2448  -4.2122  -4.2066  -4.1951
    -4.1898  -4.1738  -4.1711  -4.1386  -4.1068  -4.1025  -4.0998  -4.0972
    -4.0940  -4.0680  -4.0560  -4.0357  -4.0137  -4.0063  -4.0034  -4.0018
    -4.0008  -3.9932  -3.9667  -3.9605  -3.9243  -3.9030  -3.8885  -3.8674
    -3.8371  -3.8325  -3.8314  -3.8240  -3.8086  -3.7984  -3.7952  -3.7479
    -3.7452  -3.7427  -3.7391  -3.6584  -3.6528  -3.6368  -3.6303  -3.6010
    -3.5986  -3.5803  -3.5593  -3.5507  -3.5155  -3.5123  -3.5111  -3.5089
    -3.4903  -3.4842  -3.4125  -3.4062  -3.4036  -3.3868  -3.3778  -3.3741
    -3.3606  -3.3572  -3.3524  -3.3515  -3.3105  -3.3075  -3.2892  -3.2857
    -3.2524  -3.2483  -3.2254  -3.2049  -3.2015  -3.1582  -3.1542  -3.1237
    -3.0976  -3.0941  -3.0937  -3.0927  -3.0901  -3.0885  -3.0669  -3.0518
    -3.0168  -3.0161  -2.9955  -2.9726  -2.9677  -2.9651  -2.9618  -2.9577
    -2.9568  -2.9560  -2.9243  -2.9210  -2.9185  -2.9161  -2.9131  -2.9093
    -2.8552  -2.8516  -2.8480  -2.8428  -2.8237  -2.8225  -2.8180  -2.7280
    -2.7209  -2.7183  -2.7151  -2.7066  -2.7048  -2.7022  -2.7004  -2.6914
    -2.6907  -2.6852  -2.6783  -2.6731  -2.6700  -2.6648  -2.6559  -2.6549
    -2.6474  -2.6286  -2.6197  -2.6137  -2.6011  -2.5993  -2.5876  -2.5830
    -2.5748  -2.5718  -2.5525  -2.5510  -2.5421  -2.5393  -2.5352  -2.5039
    -2.4998  -2.4983  -2.4419  -2.4364  -2.4310  -2.4222  -2.4180  -2.4078
    -2.3908  -2.3865  -2.3810  -2.3792  -2.3694  -2.3637  -2.3535  -2.3458
    -2.3362  -2.3221  -2.3125  -2.3069  -2.3009  -2.2984  -2.2911  -2.2857
    -2.2658  -2.2459  -2.1987  -2.1771  -2.1578  -2.1500  -2.1476  -2.1407
    -2.1022  -2.0895  -2.0823  -2.0618  -2.0549  -2.0437  -2.0360  -2.0233
    -2.0074  -2.0003  -1.9927  -1.9811  -1.9695  -1.9519  -1.9485  -1.9416
    -1.9406  -1.9365  -1.9287  -1.9205  -1.9060  -1.9030  -1.9019  -1.8979
    -1.8971  -1.8941  -1.8838  -1.8791  -1.8636  -1.8597  -1.8590  -1.8472
    -1.8434  -1.8402  -1.8363  -1.8327  -1.8308  -1.8234  -1.7951  -1.7829
    -1.7523  -1.7344  -1.7289  -1.6878  -1.6863  -1.6839  -1.6747  -1.6694
    -1.6610  -1.6568  -1.6532  -1.6475  -1.6418  -1.6278  -1.6215  -1.5905
    -1.5858  -1.5722  -1.5654  -1.5474  -1.5439  -1.5091  -1.4967  -1.4559
    -1.4538  -1.4346  -1.4143  -1.4088  -1.4069  -1.4058  -1.3978  -1.3907
    -1.3866  -1.3797  -1.3789  -1.3787  -1.3778  -1.3757  -1.3737  -1.3567
    -1.3496  -1.3389  -1.3173  -1.3157  -1.3077  -1.2961  -1.2912  -1.2877
    -1.2855  -1.2818  -1.2650  -1.2481  -1.2334  -1.2218  -1.2193  -1.2011
    -1.1952  -1.1912  -1.1786  -1.1614  -1.1572  -1.1527  -1.1433  -1.1180
    -1.1086  -1.1037  -1.1016  -1.0980  -1.0880  -1.0758  -1.0719  -1.0612
    -1.0562  -1.0490  -1.0432  -1.0402  -1.0359  -1.0314  -1.0282  -1.0179
    -1.0118  -1.0104  -1.0076  -1.0017  -0.9996  -0.9846  -0.9744  -0.9414
    -0.9384  -0.9369  -0.9355  -0.9310  -0.9267  -0.9033  -0.8921  -0.8840
    -0.8723  -0.8652  -0.8626  -0.8555  -0.8526  -0.8454  -0.8344  -0.8136
    -0.8012  -0.7976  -0.7930  -0.7790  -0.7767  -0.7623  -0.7396  -0.7303
    -0.7155  -0.7104  -0.6769  -0.6757  -0.6735  -0.6694  -0.6660  -0.6652
    -0.6629  -0.6619  -0.6570  -0.6564  -0.6278  -0.6238  -0.6225  -0.6205
    -0.6194  -0.6095  -0.6062  -0.5817  -0.5702  -0.3233  -0.3066  -0.2670
    -0.2401  -0.2308  -0.1734  -0.0241  -0.0194   0.0210   0.2921   0.3046
     0.6280   0.6476   0.6765   0.6836   0.7251   0.7344   0.8823   0.9052
     1.0150   1.0200   1.1398   1.6262   1.6735   1.6752   1.7090   1.7129
     1.8299   1.8628   1.8978   1.9196   2.0811   2.0929   2.3694   2.3890
     2.4125   2.4198   2.8335   2.8630   2.8758   2.8849   2.8930   2.8988
     2.9579   2.9632   3.1063   3.2254   3.2514   3.4224   3.4288   3.5333
     3.5968   3.6160   3.8892   3.9115   3.9583   3.9650   3.9738   4.1000
     4.1048   4.1159   4.1481   4.4000   4.4104   4.4426   4.4509   4.5514
     4.5611   4.6102   4.6502   4.8965   5.4500   5.5088   5.5218   5.5884
     5.6607   5.7033   5.7223   5.7845   5.7947   5.7984   5.8071   5.8766
     5.9173   5.9664   6.1381   6.1563   6.1951   6.2073   6.2096   6.2190
     6.2211   6.2357   6.3171   6.3877   6.3904   6.4919   6.5183   6.5661

     the Fermi energy is     0.9632 ev

!    total energy              =   -7379.97560851 Ry
     Harris-Foulkes estimate   =   -7379.97560851 Ry
     estimated scf accuracy    <          2.7E-09 Ry

     The total energy is the sum of the following terms:

     one-electron contribution =  -48892.55138878 Ry
     hartree contribution      =   24995.94724197 Ry
     xc contribution           =   -3556.29526421 Ry
     ewald contribution        =   20072.92263319 Ry
     smearing contrib. (-TS)   =       0.00116933 Ry

     convergence has been achieved in  25 iterations

     Writing output data file 2467739.save

     init_run     :     98.61s CPU    102.78s WALL (       1 calls)
     electrons    :   5201.49s CPU   5713.94s WALL (       1 calls)

     Called by init_run:
     wfcinit      :     76.31s CPU     80.18s WALL (       1 calls)
     potinit      :      3.06s CPU      3.13s WALL (       1 calls)

     Called by electrons:
     c_bands      :   4244.95s CPU   4718.37s WALL (      26 calls)
     sum_band     :    713.84s CPU    749.02s WALL (      26 calls)
     v_of_rho     :     10.94s CPU     12.01s WALL (      26 calls)
     newd         :    238.04s CPU    240.37s WALL (      26 calls)
     mix_rho      :      1.99s CPU      2.26s WALL (      26 calls)

     Called by c_bands:
     init_us_2    :      7.36s CPU      7.57s WALL (     318 calls)
     cegterg      :   4146.87s CPU   4619.62s WALL (     156 calls)

     Called by *egterg:
     h_psi        :   1911.01s CPU   2063.33s WALL (     763 calls)
     s_psi        :    182.78s CPU    183.69s WALL (     763 calls)
     g_psi        :      4.10s CPU      4.10s WALL (     601 calls)
     cdiaghg      :    987.99s CPU    990.06s WALL (     751 calls)

     Called by h_psi:
     add_vuspsi   :    182.78s CPU    183.87s WALL (     763 calls)

     General routines
     calbec       :    423.80s CPU    425.27s WALL (     919 calls)
     fft          :     50.18s CPU     51.99s WALL (     416 calls)
     ffts         :      0.93s CPU      1.10s WALL (      52 calls)
     fftw         :   1701.40s CPU   1877.06s WALL (  417944 calls)
     interpolate  :      2.45s CPU      2.88s WALL (      52 calls)
     davcio       :      0.00s CPU      0.10s WALL (       6 calls)

     Parallel routines
     fft_scatter  :   1307.72s CPU   1456.95s WALL (  418412 calls)

     PWSCF        :     1h28m CPU        1h37m WALL


   This run was terminated on:  21: 4:37   9Aug2015            

=------------------------------------------------------------------------------=
   JOB DONE.
=------------------------------------------------------------------------------=
