Setting SGE environment for SCC

     Program PWSCF v.5.1.2 starts on  9Aug2015 at 18:27:29 

     This program is part of the open-source Quantum ESPRESSO suite
     for quantum simulation of materials; please cite
         "P. Giannozzi et al., J. Phys.:Condens. Matter 21 395502 (2009);
          URL http://www.quantum-espresso.org", 
     in publications or presentations arising from this work. More details at
     http://www.quantum-espresso.org/quote

     Parallel version (MPI), running on    32 processors
     R & G space division:  proc/nbgrp/npool/nimage =      32
     Reading input from bridge.O1.Au6165.d.2.7.phi.0.psi.0.in
Warning: card &IONS ignored
Warning: card / ignored
Warning: card &CELL ignored
Warning: card / ignored

     Current dimensions of program PWSCF are:
     Max number of different atomic species (ntypx) = 10
     Max number of k-points (npk) =  40000
     Max angular momentum in pseudopotentials (lmaxx) =  3

     Subspace diagonalization in iterative solution of the eigenvalue problem:
     a serial algorithm will be used


     Parallelization info
     --------------------
     sticks:   dense  smooth     PW     G-vecs:    dense   smooth      PW
     Min         578     289     74               118518    41891    5486
     Max         579     290     75               118533    41932    5497
     Sum       18505    9265   2385              3792731  1341081  175711


     Title: 
     bridge.O1.Au6165.d.2.7.phi.0.psi.0                                         


     bravais-lattice index     =            8
     lattice parameter (alat)  =      24.1233  a.u.
     unit-cell volume          =   28076.2361 (a.u.)^3
     number of atoms/cell      =           75
     number of atomic types    =            3
     number of electrons       =       800.00
     number of Kohn-Sham states=          480
     kinetic-energy cutoff     =      50.0000  Ry
     charge density cutoff     =     400.0000  Ry
     convergence threshold     =      1.0E-08
     mixing beta               =       0.7000
     number of iterations used =            8  plain     mixing
     Exchange-correlation      =  SLA  PW   PBE  PBE ( 1  4  3  4 0 0)

     celldm(1)=  24.123277  celldm(2)=   1.000000  celldm(3)=   2.000000
     celldm(4)=   0.000000  celldm(5)=   0.000000  celldm(6)=   0.000000

     crystal axes: (cart. coord. in units of alat)
               a(1) = (   1.000000   0.000000   0.000000 )  
               a(2) = (   0.000000   1.000000   0.000000 )  
               a(3) = (   0.000000   0.000000   2.000000 )  

     reciprocal axes: (cart. coord. in units 2 pi/alat)
               b(1) = (  1.000000  0.000000  0.000000 )  
               b(2) = (  0.000000  1.000000  0.000000 )  
               b(3) = (  0.000000  0.000000  0.500000 )  


     PseudoPot. # 1 for Au read from file:
     /home/scc/andrejb/qe/pseudo/Au.pbe-nd-van.UPF
     MD5 check sum: 458681b50f36d87ef23c61b04bba420a
     Pseudo is Ultrasoft + core correction, Zval = 11.0
     Generated by new atomic code, or converted to UPF format
     Using radial grid of  985 points,  3 beta functions with: 
                l(1) =   1
                l(2) =   2
                l(3) =   2
     Q(r) pseudized with  8 coefficients,  rinner =    1.100   1.100   1.100
                                                       1.100   1.100

     PseudoPot. # 2 for H  read from file:
     /home/scc/andrejb/qe/pseudo/H.pbe-van_ak.UPF
     MD5 check sum: 403db7282739603aa925980fa9b8608d
     Pseudo is Ultrasoft, Zval =  1.0
     Generated by new atomic code, or converted to UPF format
     Using radial grid of  615 points,  1 beta functions with: 
                l(1) =   0
     Q(r) pseudized with  8 coefficients,  rinner =    0.800

     PseudoPot. # 3 for O  read from file:
     /home/scc/andrejb/qe/pseudo/O.pbe-van_ak.UPF
     MD5 check sum: 4b8c549914a63cae506c6ff22b5af4fe
     Pseudo is Ultrasoft, Zval =  6.0
     Generated by new atomic code, or converted to UPF format
     Using radial grid of  737 points,  4 beta functions with: 
                l(1) =   0
                l(2) =   0
                l(3) =   1
                l(4) =   1
     Q(r) pseudized with  8 coefficients,  rinner =    0.800   0.800   0.800


     atomic species   valence    mass     pseudopotential
        Au            11.00   196.96657     Au( 1.00)
        H              1.00     1.01000     H ( 1.00)
        O              6.00    16.00000     O ( 1.00)

     No symmetry found



   Cartesian axes

     site n.     atom                  positions (alat units)
         1           O   tau(   1) = (   0.2499161   0.4165269   0.9066668  )
         2           H   tau(   2) = (   0.2028385   0.3773554   0.9521607  )
         3           H   tau(   3) = (   0.2955663   0.4545286   0.9545244  )
         4           Au  tau(   4) = (   0.0000000   0.0000000   0.0000000  )
         5           Au  tau(   5) = (   0.3332217   0.0000000   0.0000000  )
         6           Au  tau(   6) = (   0.6664434   0.0000000   0.0000000  )
         7           Au  tau(   7) = (   0.1666109   0.1666109   0.0000000  )
         8           Au  tau(   8) = (   0.4998326   0.1666109   0.0000000  )
         9           Au  tau(   9) = (   0.8330542   0.1666109   0.0000000  )
        10           Au  tau(  10) = (   0.0000000   0.3332217   0.0000000  )
        11           Au  tau(  11) = (   0.3332217   0.3332217   0.0000000  )
        12           Au  tau(  12) = (   0.6664434   0.3332217   0.0000000  )
        13           Au  tau(  13) = (   0.1666109   0.4998326   0.0000000  )
        14           Au  tau(  14) = (   0.4998326   0.4998326   0.0000000  )
        15           Au  tau(  15) = (   0.8330542   0.4998326   0.0000000  )
        16           Au  tau(  16) = (   0.0000000   0.6664434   0.0000000  )
        17           Au  tau(  17) = (   0.3332217   0.6664434   0.0000000  )
        18           Au  tau(  18) = (   0.6664434   0.6664434   0.0000000  )
        19           Au  tau(  19) = (   0.1666109   0.8330542   0.0000000  )
        20           Au  tau(  20) = (   0.4998326   0.8330542   0.0000000  )
        21           Au  tau(  21) = (   0.8330542   0.8330542   0.0000000  )
        22           Au  tau(  22) = (   0.1666109   0.0000000   0.1666109  )
        23           Au  tau(  23) = (   0.4998326   0.0000000   0.1666109  )
        24           Au  tau(  24) = (   0.8330542   0.0000000   0.1666109  )
        25           Au  tau(  25) = (   0.0000000   0.1666109   0.1666109  )
        26           Au  tau(  26) = (   0.3332217   0.1666109   0.1666109  )
        27           Au  tau(  27) = (   0.6664434   0.1666109   0.1666109  )
        28           Au  tau(  28) = (   0.1666109   0.3332217   0.1666109  )
        29           Au  tau(  29) = (   0.4998326   0.3332217   0.1666109  )
        30           Au  tau(  30) = (   0.8330542   0.3332217   0.1666109  )
        31           Au  tau(  31) = (   0.0000000   0.4998326   0.1666109  )
        32           Au  tau(  32) = (   0.3332217   0.4998326   0.1666109  )
        33           Au  tau(  33) = (   0.6664434   0.4998326   0.1666109  )
        34           Au  tau(  34) = (   0.1666109   0.6664434   0.1666109  )
        35           Au  tau(  35) = (   0.4998326   0.6664434   0.1666109  )
        36           Au  tau(  36) = (   0.8330542   0.6664434   0.1666109  )
        37           Au  tau(  37) = (   0.0000000   0.8330542   0.1666109  )
        38           Au  tau(  38) = (   0.3332217   0.8330542   0.1666109  )
        39           Au  tau(  39) = (   0.6664434   0.8330542   0.1666109  )
        40           Au  tau(  40) = (  -0.0000182  -0.0000182   0.3335478  )
        41           Au  tau(  41) = (   0.3332215  -0.0000181   0.3335473  )
        42           Au  tau(  42) = (   0.6664447  -0.0000183   0.3335481  )
        43           Au  tau(  43) = (  -0.0000181   0.3332215   0.3335473  )
        44           Au  tau(  44) = (   0.3332215   0.3332215   0.3335468  )
        45           Au  tau(  45) = (   0.6664445   0.3332215   0.3335477  )
        46           Au  tau(  46) = (  -0.0000183   0.6664447   0.3335481  )
        47           Au  tau(  47) = (   0.3332215   0.6664445   0.3335477  )
        48           Au  tau(  48) = (   0.6664446   0.6664446   0.3335486  )
        49           Au  tau(  49) = (   0.1666097   0.1666097   0.3335483  )
        50           Au  tau(  50) = (   0.4998320   0.1666098   0.3335477  )
        51           Au  tau(  51) = (   0.8330732   0.1666096   0.3335480  )
        52           Au  tau(  52) = (   0.1666098   0.4998320   0.3335477  )
        53           Au  tau(  53) = (   0.4998322   0.4998322   0.3335470  )
        54           Au  tau(  54) = (   0.8330731   0.4998322   0.3335474  )
        55           Au  tau(  55) = (   0.1666096   0.8330732   0.3335480  )
        56           Au  tau(  56) = (   0.4998322   0.8330731   0.3335474  )
        57           Au  tau(  57) = (   0.8330731   0.8330731   0.3335478  )
        58           Au  tau(  58) = (   0.1666104  -0.0000111   0.4993095  )
        59           Au  tau(  59) = (   0.4998323  -0.0000112   0.4993099  )
        60           Au  tau(  60) = (   0.8330660  -0.0000111   0.4993009  )
        61           Au  tau(  61) = (  -0.0000111   0.1666104   0.4993095  )
        62           Au  tau(  62) = (   0.3332213   0.1666106   0.4993185  )
        63           Au  tau(  63) = (   0.6664437   0.1666106   0.4993187  )
        64           Au  tau(  64) = (   0.1666106   0.3332213   0.4993185  )
        65           Au  tau(  65) = (   0.4998324   0.3332216   0.4993185  )
        66           Au  tau(  66) = (   0.8330658   0.3332215   0.4993102  )
        67           Au  tau(  67) = (  -0.0000112   0.4998323   0.4993099  )
        68           Au  tau(  68) = (   0.3332216   0.4998324   0.4993185  )
        69           Au  tau(  69) = (   0.6664437   0.4998325   0.4993187  )
        70           Au  tau(  70) = (   0.1666106   0.6664437   0.4993187  )
        71           Au  tau(  71) = (   0.4998325   0.6664437   0.4993187  )
        72           Au  tau(  72) = (   0.8330658   0.6664438   0.4993102  )
        73           Au  tau(  73) = (  -0.0000111   0.8330660   0.4993009  )
        74           Au  tau(  74) = (   0.3332215   0.8330658   0.4993102  )
        75           Au  tau(  75) = (   0.6664438   0.8330658   0.4993102  )

     number of k points=     6  Marzari-Vanderbilt smearing, width (Ry)=  0.0200
                       cart. coord. in units 2pi/alat
        k(    1) = (   0.2500000   0.2500000   0.0833333), wk =   0.3333333
        k(    2) = (   0.2500000   0.2500000  -0.2500000), wk =   0.3333333
        k(    3) = (  -0.2500000  -0.2500000   0.0833333), wk =   0.3333333
        k(    4) = (  -0.2500000   0.2500000  -0.0833333), wk =   0.3333333
        k(    5) = (   0.2500000  -0.2500000  -0.0833333), wk =   0.3333333
        k(    6) = (  -0.2500000   0.2500000   0.2500000), wk =   0.3333333

     Dense  grid:  3792731 G-vectors     FFT dimensions: ( 160, 160, 320)

     Smooth grid:  1341081 G-vectors     FFT dimensions: ( 120, 120, 225)

     Largest allocated arrays     est. size (Mb)     dimensions
        Kohn-Sham Wavefunctions        38.58 Mb     (    5267,  480)
        NL pseudopotentials            76.03 Mb     (    5267,  946)
        Each V/rho on FFT grid          3.91 Mb     (  256000)
        Each G-vector array             0.90 Mb     (  118520)
        G-vector shells                 0.08 Mb     (   10286)
     Largest temporary arrays     est. size (Mb)     dimensions
        Auxiliary wavefunctions       154.31 Mb     (    5267, 1920)
        Each subspace H/S matrix       56.25 Mb     (    1920, 1920)
        Each <psi_i|beta_j> matrix      6.93 Mb     (     946,  480)
        Arrays for rho mixing          31.25 Mb     (  256000,    8)

     Initial potential from superposition of free atoms
     Check: negative starting charge=   -1.944622

     starting charge  799.16392, renormalised to  800.00000

     negative rho (up, down):  1.947E+00 0.000E+00
     Starting wfc are  654 randomized atomic wfcs

     total cpu time spent up to now is      120.0 secs

     Self-consistent Calculation

     iteration #  1     ecut=    50.00 Ry     beta=0.70
     Davidson diagonalization with overlap
     ethr =  1.00E-02,  avg # of iterations =  3.0

     Threshold (ethr) on eigenvalues was too large:
     Diagonalizing with lowered threshold

     Davidson diagonalization with overlap
     ethr =  5.01E-04,  avg # of iterations =  2.0

     negative rho (up, down):  1.932E+00 0.000E+00

     total cpu time spent up to now is      560.6 secs

     total energy              =   -7377.39633897 Ry
     Harris-Foulkes estimate   =   -7380.96450264 Ry
     estimated scf accuracy    <       4.52891579 Ry

     iteration #  2     ecut=    50.00 Ry     beta=0.70
     Davidson diagonalization with overlap
     ethr =  5.66E-04,  avg # of iterations = 11.2

     negative rho (up, down):  1.929E+00 0.000E+00

     total cpu time spent up to now is     1283.2 secs

     total energy              =   -7368.71065100 Ry
     Harris-Foulkes estimate   =   -7387.99313910 Ry
     estimated scf accuracy    <      99.26636398 Ry

     iteration #  3     ecut=    50.00 Ry     beta=0.70
     Davidson diagonalization with overlap
     ethr =  5.66E-04,  avg # of iterations =  6.0

     negative rho (up, down):  1.947E+00 0.000E+00

     total cpu time spent up to now is     1737.3 secs

     total energy              =   -7378.57885298 Ry
     Harris-Foulkes estimate   =   -7380.68368333 Ry
     estimated scf accuracy    <       8.32608785 Ry

     iteration #  4     ecut=    50.00 Ry     beta=0.70
     Davidson diagonalization with overlap
     ethr =  5.66E-04,  avg # of iterations =  6.8

     negative rho (up, down):  1.955E+00 0.000E+00

     total cpu time spent up to now is     2022.7 secs

     total energy              =   -7379.77219830 Ry
     Harris-Foulkes estimate   =   -7380.22041768 Ry
     estimated scf accuracy    <       1.31384836 Ry

     iteration #  5     ecut=    50.00 Ry     beta=0.70
     Davidson diagonalization with overlap
     ethr =  1.64E-04,  avg # of iterations =  8.5

     negative rho (up, down):  1.960E+00 0.000E+00

     total cpu time spent up to now is     2351.2 secs

     total energy              =   -7379.55264404 Ry
     Harris-Foulkes estimate   =   -7380.41994070 Ry
     estimated scf accuracy    <       7.79788611 Ry

     iteration #  6     ecut=    50.00 Ry     beta=0.70
     Davidson diagonalization with overlap
     ethr =  1.64E-04,  avg # of iterations =  5.2

     negative rho (up, down):  1.966E+00 0.000E+00

     total cpu time spent up to now is     2614.9 secs

     total energy              =   -7379.98170644 Ry
     Harris-Foulkes estimate   =   -7380.02074805 Ry
     estimated scf accuracy    <       0.16585944 Ry

     iteration #  7     ecut=    50.00 Ry     beta=0.70
     Davidson diagonalization with overlap
     ethr =  2.07E-05,  avg # of iterations = 11.5

     negative rho (up, down):  1.967E+00 0.000E+00

     total cpu time spent up to now is     2959.6 secs

     total energy              =   -7379.98008630 Ry
     Harris-Foulkes estimate   =   -7380.00770859 Ry
     estimated scf accuracy    <       0.11663156 Ry

     iteration #  8     ecut=    50.00 Ry     beta=0.70
     Davidson diagonalization with overlap
     ethr =  1.46E-05,  avg # of iterations =  6.2

     negative rho (up, down):  1.968E+00 0.000E+00

     total cpu time spent up to now is     3217.2 secs

     total energy              =   -7379.97997686 Ry
     Harris-Foulkes estimate   =   -7379.99722635 Ry
     estimated scf accuracy    <       0.07134819 Ry

     iteration #  9     ecut=    50.00 Ry     beta=0.70
     Davidson diagonalization with overlap
     ethr =  8.92E-06,  avg # of iterations =  9.3

     negative rho (up, down):  1.969E+00 0.000E+00

     total cpu time spent up to now is     3519.3 secs

     total energy              =   -7379.97770310 Ry
     Harris-Foulkes estimate   =   -7379.99039104 Ry
     estimated scf accuracy    <       0.05049747 Ry

     iteration # 10     ecut=    50.00 Ry     beta=0.70
     Davidson diagonalization with overlap
     ethr =  6.31E-06,  avg # of iterations =  9.2

     negative rho (up, down):  1.971E+00 0.000E+00

     total cpu time spent up to now is     3803.4 secs

     total energy              =   -7379.97830465 Ry
     Harris-Foulkes estimate   =   -7379.98381437 Ry
     estimated scf accuracy    <       0.01584881 Ry

     iteration # 11     ecut=    50.00 Ry     beta=0.70
     Davidson diagonalization with overlap
     ethr =  1.98E-06,  avg # of iterations = 10.3

     negative rho (up, down):  1.971E+00 0.000E+00

     total cpu time spent up to now is     4124.4 secs

     total energy              =   -7379.97874772 Ry
     Harris-Foulkes estimate   =   -7379.98065466 Ry
     estimated scf accuracy    <       0.00628134 Ry

     iteration # 12     ecut=    50.00 Ry     beta=0.70
     Davidson diagonalization with overlap
     ethr =  7.85E-07,  avg # of iterations =  6.7

     negative rho (up, down):  1.972E+00 0.000E+00

     total cpu time spent up to now is     4385.5 secs

     total energy              =   -7379.97815325 Ry
     Harris-Foulkes estimate   =   -7379.97937672 Ry
     estimated scf accuracy    <       0.00165787 Ry

     iteration # 13     ecut=    50.00 Ry     beta=0.70
     Davidson diagonalization with overlap
     ethr =  2.07E-07,  avg # of iterations = 12.0

     negative rho (up, down):  1.971E+00 0.000E+00

     total cpu time spent up to now is     4802.3 secs

     total energy              =   -7379.97776349 Ry
     Harris-Foulkes estimate   =   -7379.97925983 Ry
     estimated scf accuracy    <       0.00735095 Ry

     iteration # 14     ecut=    50.00 Ry     beta=0.70
     Davidson diagonalization with overlap
     ethr =  2.07E-07,  avg # of iterations =  3.0

     negative rho (up, down):  1.971E+00 0.000E+00

     total cpu time spent up to now is     5048.7 secs

     total energy              =   -7379.97841124 Ry
     Harris-Foulkes estimate   =   -7379.97864714 Ry
     estimated scf accuracy    <       0.00087376 Ry

     iteration # 15     ecut=    50.00 Ry     beta=0.70
     Davidson diagonalization with overlap
     ethr =  1.09E-07,  avg # of iterations =  2.0

     negative rho (up, down):  1.971E+00 0.000E+00

     total cpu time spent up to now is     5269.5 secs

     total energy              =   -7379.97836897 Ry
     Harris-Foulkes estimate   =   -7379.97872215 Ry
     estimated scf accuracy    <       0.00210232 Ry

     iteration # 16     ecut=    50.00 Ry     beta=0.70
     Davidson diagonalization with overlap
     ethr =  1.09E-07,  avg # of iterations =  2.0

     negative rho (up, down):  1.971E+00 0.000E+00

     total cpu time spent up to now is     5483.1 secs

     total energy              =   -7379.97852216 Ry
     Harris-Foulkes estimate   =   -7379.97858490 Ry
     estimated scf accuracy    <       0.00040436 Ry

     iteration # 17     ecut=    50.00 Ry     beta=0.70
     Davidson diagonalization with overlap
     ethr =  5.05E-08,  avg # of iterations =  2.0

     negative rho (up, down):  1.971E+00 0.000E+00

     total cpu time spent up to now is     5690.3 secs

     total energy              =   -7379.97855181 Ry
     Harris-Foulkes estimate   =   -7379.97856869 Ry
     estimated scf accuracy    <       0.00007224 Ry

     iteration # 18     ecut=    50.00 Ry     beta=0.70
     Davidson diagonalization with overlap
     ethr =  9.03E-09,  avg # of iterations =  2.0

     negative rho (up, down):  1.971E+00 0.000E+00

     total cpu time spent up to now is     5897.1 secs

     total energy              =   -7379.97855796 Ry
     Harris-Foulkes estimate   =   -7379.97856245 Ry
     estimated scf accuracy    <       0.00001250 Ry

     iteration # 19     ecut=    50.00 Ry     beta=0.70
     Davidson diagonalization with overlap
     ethr =  1.56E-09,  avg # of iterations =  2.0

     negative rho (up, down):  1.971E+00 0.000E+00

     total cpu time spent up to now is     6124.3 secs

     total energy              =   -7379.97855841 Ry
     Harris-Foulkes estimate   =   -7379.97856309 Ry
     estimated scf accuracy    <       0.00002354 Ry

     iteration # 20     ecut=    50.00 Ry     beta=0.70
     Davidson diagonalization with overlap
     ethr =  1.56E-09,  avg # of iterations =  2.0

     negative rho (up, down):  1.971E+00 0.000E+00

     total cpu time spent up to now is     6333.0 secs

     total energy              =   -7379.97856040 Ry
     Harris-Foulkes estimate   =   -7379.97856137 Ry
     estimated scf accuracy    <       0.00000407 Ry

     iteration # 21     ecut=    50.00 Ry     beta=0.70
     Davidson diagonalization with overlap
     ethr =  5.09E-10,  avg # of iterations =  2.3

     negative rho (up, down):  1.971E+00 0.000E+00

     total cpu time spent up to now is     6553.3 secs

     total energy              =   -7379.97856089 Ry
     Harris-Foulkes estimate   =   -7379.97856111 Ry
     estimated scf accuracy    <       0.00000085 Ry

     iteration # 22     ecut=    50.00 Ry     beta=0.70
     Davidson diagonalization with overlap
     ethr =  1.07E-10,  avg # of iterations =  2.0

     negative rho (up, down):  1.971E+00 0.000E+00

     total cpu time spent up to now is     6767.9 secs

     total energy              =   -7379.97856097 Ry
     Harris-Foulkes estimate   =   -7379.97856107 Ry
     estimated scf accuracy    <       0.00000028 Ry

     iteration # 23     ecut=    50.00 Ry     beta=0.70
     Davidson diagonalization with overlap
     ethr =  3.49E-11,  avg # of iterations =  3.0

     negative rho (up, down):  1.971E+00 0.000E+00

     total cpu time spent up to now is     6998.3 secs

     total energy              =   -7379.97856098 Ry
     Harris-Foulkes estimate   =   -7379.97856105 Ry
     estimated scf accuracy    <       0.00000024 Ry

     iteration # 24     ecut=    50.00 Ry     beta=0.70
     Davidson diagonalization with overlap
     ethr =  2.96E-11,  avg # of iterations =  2.0

     negative rho (up, down):  1.971E+00 0.000E+00

     total cpu time spent up to now is     7208.0 secs

     total energy              =   -7379.97856099 Ry
     Harris-Foulkes estimate   =   -7379.97856106 Ry
     estimated scf accuracy    <       0.00000038 Ry

     iteration # 25     ecut=    50.00 Ry     beta=0.70
     Davidson diagonalization with overlap
     ethr =  2.96E-11,  avg # of iterations =  2.0

     negative rho (up, down):  1.971E+00 0.000E+00

     total cpu time spent up to now is     7416.4 secs

     total energy              =   -7379.97856102 Ry
     Harris-Foulkes estimate   =   -7379.97856103 Ry
     estimated scf accuracy    <       0.00000002 Ry

     iteration # 26     ecut=    50.00 Ry     beta=0.70
     Davidson diagonalization with overlap
     ethr =  2.49E-12,  avg # of iterations =  3.0

     negative rho (up, down):  1.971E+00 0.000E+00

     total cpu time spent up to now is     7683.2 secs

     total energy              =   -7379.97856102 Ry
     Harris-Foulkes estimate   =   -7379.97856104 Ry
     estimated scf accuracy    <       0.00000012 Ry

     iteration # 27     ecut=    50.00 Ry     beta=0.70
     Davidson diagonalization with overlap
     ethr =  2.49E-12,  avg # of iterations =  2.0

     negative rho (up, down):  1.971E+00 0.000E+00

     total cpu time spent up to now is     7906.9 secs

     total energy              =   -7379.97856103 Ry
     Harris-Foulkes estimate   =   -7379.97856103 Ry
     estimated scf accuracy    <       0.00000003 Ry

     iteration # 28     ecut=    50.00 Ry     beta=0.70
     Davidson diagonalization with overlap
     ethr =  2.49E-12,  avg # of iterations =  2.0

     negative rho (up, down):  1.971E+00 0.000E+00

     total cpu time spent up to now is     8114.5 secs

     End of self-consistent calculation

          k = 0.2500 0.2500 0.0833 (167653 PWs)   bands (ev):

   -19.1935  -7.0065  -6.7800  -6.2498  -6.2495  -5.8115  -5.4080  -5.3094
    -5.3091  -5.0875  -5.0875  -4.9907  -4.9903  -4.8570  -4.8494  -4.7399
    -4.6514  -4.6474  -4.6263  -4.6261  -4.4451  -4.4439  -4.4437  -4.4170
    -4.4130  -4.4125  -4.4089  -4.3554  -4.3551  -4.3526  -4.3524  -4.2889
    -4.2604  -4.2603  -4.2036  -4.2003  -4.1991  -4.1631  -4.1628  -4.1489
    -4.1446  -4.1258  -4.1258  -4.0883  -4.0561  -4.0559  -4.0535  -4.0504
    -4.0503  -4.0200  -3.9897  -3.9894  -3.9601  -3.9599  -3.9560  -3.9559
    -3.9538  -3.9479  -3.9158  -3.9154  -3.8554  -3.8552  -3.8231  -3.7965
    -3.7899  -3.7864  -3.7861  -3.7638  -3.7638  -3.7519  -3.7016  -3.7015
    -3.6956  -3.6954  -3.6102  -3.6100  -3.5880  -3.5877  -3.5533  -3.5501
    -3.5382  -3.5120  -3.5120  -3.4677  -3.4675  -3.4651  -3.4649  -3.4404
    -3.4401  -3.3597  -3.3596  -3.3578  -3.3443  -3.3284  -3.3258  -3.3129
    -3.3128  -3.3056  -3.3055  -3.2627  -3.2627  -3.2398  -3.2396  -3.2048
    -3.2033  -3.2032  -3.1768  -3.1558  -3.1557  -3.1096  -3.1094  -3.0769
    -3.0494  -3.0489  -3.0483  -3.0477  -3.0439  -3.0438  -3.0161  -3.0075
    -2.9684  -2.9684  -2.9473  -2.9238  -2.9208  -2.9206  -2.9143  -2.9139
    -2.9098  -2.9097  -2.8746  -2.8735  -2.8735  -2.8681  -2.8681  -2.8631
    -2.8080  -2.8020  -2.7981  -2.7978  -2.7758  -2.7757  -2.7705  -2.6818
    -2.6713  -2.6711  -2.6617  -2.6614  -2.6555  -2.6543  -2.6532  -2.6456
    -2.6455  -2.6348  -2.6274  -2.6243  -2.6241  -2.6197  -2.6097  -2.6042
    -2.6023  -2.5801  -2.5695  -2.5692  -2.5535  -2.5535  -2.5364  -2.5364
    -2.5277  -2.5275  -2.5070  -2.4943  -2.4943  -2.4889  -2.4888  -2.4549
    -2.4526  -2.4525  -2.3944  -2.3912  -2.3762  -2.3761  -2.3656  -2.3611
    -2.3380  -2.3378  -2.3337  -2.3210  -2.3208  -2.3093  -2.3089  -2.2924
    -2.2921  -2.2652  -2.2652  -2.2550  -2.2549  -2.2451  -2.2450  -2.2278
    -2.2148  -2.1942  -2.1252  -2.1238  -2.1045  -2.1043  -2.0925  -2.0924
    -2.0425  -2.0421  -2.0271  -2.0075  -1.9950  -1.9950  -1.9768  -1.9585
    -1.9584  -1.9452  -1.9384  -1.9064  -1.9059  -1.9045  -1.8976  -1.8976
    -1.8899  -1.8897  -1.8692  -1.8629  -1.8524  -1.8523  -1.8518  -1.8517
    -1.8507  -1.8503  -1.8366  -1.8166  -1.8165  -1.8132  -1.8077  -1.7949
    -1.7947  -1.7905  -1.7903  -1.7846  -1.7826  -1.7485  -1.7481  -1.7035
    -1.6845  -1.6842  -1.6386  -1.6384  -1.6383  -1.6277  -1.6274  -1.6138
    -1.6134  -1.6061  -1.6058  -1.5956  -1.5953  -1.5751  -1.5750  -1.5381
    -1.5379  -1.5206  -1.4983  -1.4981  -1.4588  -1.4586  -1.4083  -1.4082
    -1.3872  -1.3625  -1.3612  -1.3607  -1.3550  -1.3543  -1.3345  -1.3343
    -1.3334  -1.3333  -1.3314  -1.3310  -1.3305  -1.3293  -1.3279  -1.3011
    -1.3010  -1.2681  -1.2667  -1.2667  -1.2451  -1.2450  -1.2401  -1.2399
    -1.2368  -1.2264  -1.1987  -1.1984  -1.1742  -1.1731  -1.1722  -1.1617
    -1.1525  -1.1413  -1.1410  -1.1119  -1.1117  -1.1048  -1.1047  -1.0663
    -1.0659  -1.0543  -1.0541  -1.0533  -1.0531  -1.0271  -1.0269  -1.0127
    -1.0055  -1.0053  -0.9936  -0.9932  -0.9917  -0.9914  -0.9804  -0.9704
    -0.9694  -0.9628  -0.9628  -0.9559  -0.9518  -0.9516  -0.9355  -0.8939
    -0.8929  -0.8911  -0.8889  -0.8860  -0.8859  -0.8566  -0.8566  -0.8428
    -0.8253  -0.8249  -0.8167  -0.8166  -0.8084  -0.8012  -0.8000  -0.7635
    -0.7632  -0.7520  -0.7520  -0.7317  -0.7316  -0.7162  -0.6920  -0.6839
    -0.6663  -0.6660  -0.6284  -0.6283  -0.6253  -0.6252  -0.6243  -0.6183
    -0.6174  -0.6172  -0.6133  -0.6106  -0.5775  -0.5774  -0.5760  -0.5757
    -0.5749  -0.5743  -0.5606  -0.5603  -0.5321  -0.2697  -0.2638  -0.2182
    -0.2171  -0.1866  -0.1279   0.0246   0.0248   0.0554   0.3401   0.3403
     0.6806   0.6817   0.7247   0.7247   0.7745   0.7751   0.9341   0.9347
     1.0627   1.0638   1.1778   1.6732   1.7158   1.7189   1.7562   1.7565
     1.8930   1.8953   1.9497   1.9502   2.1324   2.1326   2.4176   2.4439
     2.4454   2.4655   2.8999   2.9018   2.9232   2.9250   2.9404   2.9407
     3.0062   3.0068   3.1638   3.2844   3.2855   3.4694   3.4801   3.5812
     3.6530   3.6535   3.9528   3.9536   4.0100   4.0114   4.0116   4.1581
     4.1589   4.1785   4.1786   4.4539   4.4559   4.4920   4.4923   4.6056
     4.6111   4.6728   4.6748   4.9480   5.0377   5.5552   5.5562   5.6320
     5.6346   5.7626   5.7633   5.8203   5.8350   5.8351   5.8517   5.8520
     5.9389   5.9639   5.9795   6.1498   6.2508   6.2519   6.2622   6.2633
     6.2684   6.2781   6.2805   6.3445   6.4304   6.4377   6.4935   6.5441

          k = 0.2500 0.2500-0.2500 (167588 PWs)   bands (ev):

   -19.1935  -7.0065  -6.7800  -6.2498  -6.2495  -5.8115  -5.4080  -5.3094
    -5.3091  -5.0875  -5.0875  -4.9907  -4.9903  -4.8570  -4.8494  -4.7399
    -4.6514  -4.6474  -4.6263  -4.6261  -4.4451  -4.4439  -4.4437  -4.4170
    -4.4130  -4.4125  -4.4089  -4.3554  -4.3551  -4.3526  -4.3524  -4.2889
    -4.2604  -4.2603  -4.2037  -4.2003  -4.1991  -4.1631  -4.1628  -4.1489
    -4.1446  -4.1258  -4.1258  -4.0883  -4.0561  -4.0559  -4.0535  -4.0504
    -4.0503  -4.0200  -3.9897  -3.9894  -3.9601  -3.9599  -3.9560  -3.9559
    -3.9538  -3.9479  -3.9158  -3.9154  -3.8554  -3.8552  -3.8231  -3.7965
    -3.7899  -3.7864  -3.7861  -3.7638  -3.7637  -3.7519  -3.7016  -3.7015
    -3.6956  -3.6954  -3.6102  -3.6100  -3.5880  -3.5877  -3.5533  -3.5501
    -3.5382  -3.5120  -3.5120  -3.4677  -3.4675  -3.4651  -3.4649  -3.4404
    -3.4401  -3.3597  -3.3596  -3.3578  -3.3443  -3.3284  -3.3258  -3.3129
    -3.3128  -3.3056  -3.3055  -3.2627  -3.2627  -3.2398  -3.2396  -3.2048
    -3.2033  -3.2032  -3.1768  -3.1558  -3.1557  -3.1096  -3.1094  -3.0769
    -3.0494  -3.0489  -3.0483  -3.0477  -3.0438  -3.0438  -3.0161  -3.0075
    -2.9684  -2.9684  -2.9473  -2.9238  -2.9208  -2.9206  -2.9143  -2.9139
    -2.9098  -2.9097  -2.8746  -2.8735  -2.8735  -2.8681  -2.8680  -2.8631
    -2.8080  -2.8020  -2.7981  -2.7978  -2.7758  -2.7757  -2.7705  -2.6818
    -2.6713  -2.6711  -2.6617  -2.6614  -2.6555  -2.6543  -2.6532  -2.6456
    -2.6454  -2.6348  -2.6274  -2.6243  -2.6241  -2.6197  -2.6097  -2.6042
    -2.6023  -2.5801  -2.5695  -2.5692  -2.5535  -2.5535  -2.5364  -2.5364
    -2.5277  -2.5275  -2.5070  -2.4943  -2.4943  -2.4889  -2.4888  -2.4550
    -2.4526  -2.4525  -2.3944  -2.3912  -2.3762  -2.3761  -2.3656  -2.3611
    -2.3379  -2.3378  -2.3337  -2.3210  -2.3208  -2.3093  -2.3089  -2.2924
    -2.2921  -2.2652  -2.2652  -2.2551  -2.2549  -2.2451  -2.2450  -2.2278
    -2.2148  -2.1942  -2.1252  -2.1238  -2.1045  -2.1043  -2.0925  -2.0924
    -2.0425  -2.0421  -2.0271  -2.0076  -1.9950  -1.9950  -1.9768  -1.9585
    -1.9584  -1.9452  -1.9384  -1.9064  -1.9059  -1.9045  -1.8976  -1.8976
    -1.8899  -1.8897  -1.8692  -1.8629  -1.8524  -1.8523  -1.8518  -1.8517
    -1.8507  -1.8503  -1.8366  -1.8166  -1.8165  -1.8132  -1.8077  -1.7949
    -1.7947  -1.7905  -1.7903  -1.7846  -1.7826  -1.7485  -1.7481  -1.7036
    -1.6845  -1.6842  -1.6386  -1.6384  -1.6383  -1.6277  -1.6274  -1.6138
    -1.6134  -1.6061  -1.6058  -1.5956  -1.5953  -1.5751  -1.5750  -1.5381
    -1.5379  -1.5206  -1.4983  -1.4981  -1.4588  -1.4586  -1.4083  -1.4082
    -1.3872  -1.3625  -1.3612  -1.3607  -1.3550  -1.3543  -1.3345  -1.3343
    -1.3334  -1.3333  -1.3314  -1.3310  -1.3305  -1.3293  -1.3278  -1.3011
    -1.3010  -1.2681  -1.2667  -1.2667  -1.2451  -1.2450  -1.2401  -1.2399
    -1.2368  -1.2264  -1.1987  -1.1984  -1.1742  -1.1731  -1.1722  -1.1617
    -1.1525  -1.1413  -1.1410  -1.1119  -1.1117  -1.1048  -1.1047  -1.0663
    -1.0659  -1.0543  -1.0541  -1.0533  -1.0531  -1.0271  -1.0269  -1.0127
    -1.0055  -1.0053  -0.9936  -0.9932  -0.9917  -0.9914  -0.9804  -0.9704
    -0.9694  -0.9628  -0.9628  -0.9559  -0.9518  -0.9516  -0.9355  -0.8939
    -0.8929  -0.8911  -0.8889  -0.8860  -0.8859  -0.8566  -0.8566  -0.8428
    -0.8253  -0.8248  -0.8167  -0.8166  -0.8084  -0.8012  -0.8000  -0.7635
    -0.7632  -0.7520  -0.7520  -0.7317  -0.7316  -0.7162  -0.6920  -0.6839
    -0.6663  -0.6660  -0.6284  -0.6283  -0.6253  -0.6252  -0.6243  -0.6183
    -0.6174  -0.6172  -0.6133  -0.6106  -0.5776  -0.5774  -0.5760  -0.5757
    -0.5749  -0.5743  -0.5606  -0.5603  -0.5321  -0.2697  -0.2638  -0.2182
    -0.2171  -0.1866  -0.1279   0.0246   0.0248   0.0554   0.3401   0.3403
     0.6806   0.6817   0.7247   0.7247   0.7745   0.7751   0.9341   0.9347
     1.0627   1.0638   1.1778   1.6732   1.7158   1.7189   1.7562   1.7565
     1.8930   1.8953   1.9497   1.9502   2.1324   2.1326   2.4176   2.4439
     2.4454   2.4655   2.8999   2.9018   2.9232   2.9250   2.9404   2.9407
     3.0062   3.0068   3.1639   3.2844   3.2855   3.4694   3.4801   3.5812
     3.6530   3.6535   3.9528   3.9536   4.0100   4.0114   4.0116   4.1581
     4.1589   4.1785   4.1788   4.4539   4.4559   4.4920   4.4923   4.6056
     4.6111   4.6728   4.6748   4.9483   5.0345   5.5552   5.5562   5.6322
     5.6345   5.7626   5.7632   5.7926   5.8350   5.8350   5.8517   5.8520
     5.9483   5.9640   6.0698   6.0957   6.2508   6.2519   6.2622   6.2633
     6.2684   6.2781   6.3170   6.3642   6.4375   6.4397   6.5150   6.5588

          k =-0.2500-0.2500 0.0833 (167653 PWs)   bands (ev):

   -19.1935  -7.0065  -6.7800  -6.2498  -6.2495  -5.8115  -5.4080  -5.3094
    -5.3091  -5.0875  -5.0875  -4.9907  -4.9903  -4.8570  -4.8494  -4.7399
    -4.6514  -4.6474  -4.6263  -4.6261  -4.4451  -4.4439  -4.4437  -4.4170
    -4.4130  -4.4125  -4.4089  -4.3554  -4.3551  -4.3526  -4.3524  -4.2889
    -4.2604  -4.2603  -4.2036  -4.2003  -4.1991  -4.1631  -4.1628  -4.1489
    -4.1446  -4.1258  -4.1258  -4.0883  -4.0561  -4.0559  -4.0535  -4.0504
    -4.0503  -4.0200  -3.9897  -3.9894  -3.9601  -3.9599  -3.9560  -3.9559
    -3.9538  -3.9479  -3.9158  -3.9154  -3.8554  -3.8552  -3.8231  -3.7965
    -3.7899  -3.7864  -3.7861  -3.7638  -3.7638  -3.7519  -3.7016  -3.7015
    -3.6956  -3.6954  -3.6102  -3.6100  -3.5880  -3.5877  -3.5533  -3.5501
    -3.5382  -3.5120  -3.5120  -3.4677  -3.4675  -3.4651  -3.4649  -3.4404
    -3.4401  -3.3597  -3.3596  -3.3578  -3.3443  -3.3284  -3.3258  -3.3129
    -3.3128  -3.3056  -3.3055  -3.2627  -3.2627  -3.2398  -3.2396  -3.2048
    -3.2033  -3.2032  -3.1768  -3.1558  -3.1557  -3.1096  -3.1094  -3.0769
    -3.0494  -3.0489  -3.0483  -3.0477  -3.0439  -3.0438  -3.0161  -3.0075
    -2.9684  -2.9684  -2.9473  -2.9238  -2.9208  -2.9206  -2.9143  -2.9139
    -2.9098  -2.9097  -2.8746  -2.8735  -2.8735  -2.8681  -2.8681  -2.8631
    -2.8080  -2.8020  -2.7981  -2.7978  -2.7758  -2.7757  -2.7705  -2.6818
    -2.6713  -2.6711  -2.6617  -2.6614  -2.6555  -2.6543  -2.6532  -2.6456
    -2.6455  -2.6348  -2.6274  -2.6243  -2.6241  -2.6197  -2.6097  -2.6042
    -2.6023  -2.5801  -2.5695  -2.5692  -2.5535  -2.5535  -2.5364  -2.5364
    -2.5277  -2.5275  -2.5070  -2.4943  -2.4943  -2.4889  -2.4888  -2.4549
    -2.4526  -2.4525  -2.3944  -2.3912  -2.3762  -2.3761  -2.3656  -2.3611
    -2.3380  -2.3378  -2.3337  -2.3210  -2.3208  -2.3093  -2.3089  -2.2924
    -2.2921  -2.2652  -2.2652  -2.2550  -2.2549  -2.2451  -2.2450  -2.2278
    -2.2148  -2.1942  -2.1252  -2.1238  -2.1045  -2.1043  -2.0925  -2.0924
    -2.0425  -2.0421  -2.0271  -2.0075  -1.9950  -1.9950  -1.9768  -1.9585
    -1.9584  -1.9452  -1.9384  -1.9064  -1.9059  -1.9045  -1.8976  -1.8976
    -1.8899  -1.8897  -1.8692  -1.8629  -1.8524  -1.8523  -1.8518  -1.8517
    -1.8507  -1.8503  -1.8366  -1.8166  -1.8165  -1.8132  -1.8077  -1.7949
    -1.7947  -1.7905  -1.7903  -1.7846  -1.7826  -1.7485  -1.7481  -1.7035
    -1.6845  -1.6842  -1.6386  -1.6384  -1.6383  -1.6277  -1.6274  -1.6138
    -1.6134  -1.6061  -1.6058  -1.5956  -1.5953  -1.5751  -1.5750  -1.5381
    -1.5379  -1.5206  -1.4983  -1.4981  -1.4588  -1.4586  -1.4083  -1.4082
    -1.3872  -1.3625  -1.3612  -1.3607  -1.3550  -1.3543  -1.3345  -1.3343
    -1.3334  -1.3333  -1.3314  -1.3310  -1.3305  -1.3293  -1.3279  -1.3011
    -1.3010  -1.2681  -1.2667  -1.2667  -1.2451  -1.2450  -1.2401  -1.2399
    -1.2368  -1.2264  -1.1987  -1.1984  -1.1742  -1.1731  -1.1722  -1.1617
    -1.1525  -1.1413  -1.1410  -1.1119  -1.1117  -1.1048  -1.1047  -1.0663
    -1.0659  -1.0543  -1.0541  -1.0533  -1.0531  -1.0271  -1.0269  -1.0127
    -1.0055  -1.0053  -0.9936  -0.9932  -0.9917  -0.9914  -0.9804  -0.9704
    -0.9694  -0.9628  -0.9628  -0.9559  -0.9518  -0.9516  -0.9355  -0.8939
    -0.8929  -0.8911  -0.8889  -0.8860  -0.8859  -0.8566  -0.8566  -0.8428
    -0.8253  -0.8249  -0.8167  -0.8166  -0.8084  -0.8012  -0.8000  -0.7635
    -0.7632  -0.7520  -0.7520  -0.7317  -0.7316  -0.7162  -0.6920  -0.6839
    -0.6663  -0.6660  -0.6284  -0.6283  -0.6253  -0.6252  -0.6243  -0.6183
    -0.6174  -0.6172  -0.6133  -0.6106  -0.5775  -0.5774  -0.5760  -0.5757
    -0.5749  -0.5743  -0.5606  -0.5603  -0.5321  -0.2697  -0.2638  -0.2182
    -0.2171  -0.1866  -0.1279   0.0246   0.0248   0.0554   0.3401   0.3403
     0.6806   0.6817   0.7247   0.7247   0.7745   0.7751   0.9341   0.9347
     1.0627   1.0638   1.1778   1.6732   1.7158   1.7189   1.7562   1.7565
     1.8930   1.8953   1.9497   1.9502   2.1324   2.1326   2.4176   2.4439
     2.4454   2.4655   2.8999   2.9018   2.9232   2.9250   2.9404   2.9407
     3.0062   3.0068   3.1638   3.2844   3.2855   3.4694   3.4801   3.5812
     3.6530   3.6535   3.9528   3.9536   4.0100   4.0114   4.0116   4.1581
     4.1589   4.1785   4.1786   4.4539   4.4559   4.4920   4.4923   4.6056
     4.6111   4.6728   4.6748   4.9480   5.0377   5.5552   5.5562   5.6320
     5.6347   5.7626   5.7633   5.8195   5.8350   5.8351   5.8517   5.8520
     5.9396   5.9639   5.9804   6.1498   6.2508   6.2519   6.2622   6.2633
     6.2684   6.2781   6.2801   6.3446   6.4296   6.4377   6.4896   6.5477

          k =-0.2500 0.2500-0.0833 (167653 PWs)   bands (ev):

   -19.1935  -7.0065  -6.7800  -6.2499  -6.2495  -5.8115  -5.4080  -5.3094
    -5.3091  -5.0875  -5.0875  -4.9908  -4.9901  -4.8570  -4.8494  -4.7399
    -4.6514  -4.6475  -4.6263  -4.6261  -4.4451  -4.4440  -4.4437  -4.4170
    -4.4130  -4.4125  -4.4089  -4.3555  -4.3550  -4.3527  -4.3524  -4.2889
    -4.2604  -4.2603  -4.2037  -4.2003  -4.1991  -4.1632  -4.1627  -4.1489
    -4.1446  -4.1258  -4.1258  -4.0883  -4.0562  -4.0558  -4.0535  -4.0505
    -4.0502  -4.0200  -3.9897  -3.9894  -3.9602  -3.9599  -3.9560  -3.9559
    -3.9538  -3.9479  -3.9159  -3.9153  -3.8555  -3.8551  -3.8231  -3.7965
    -3.7899  -3.7864  -3.7861  -3.7638  -3.7637  -3.7519  -3.7016  -3.7015
    -3.6957  -3.6954  -3.6103  -3.6099  -3.5881  -3.5876  -3.5533  -3.5501
    -3.5382  -3.5120  -3.5120  -3.4678  -3.4675  -3.4651  -3.4649  -3.4404
    -3.4400  -3.3598  -3.3595  -3.3578  -3.3443  -3.3284  -3.3258  -3.3129
    -3.3127  -3.3056  -3.3054  -3.2628  -3.2627  -3.2398  -3.2395  -3.2047
    -3.2035  -3.2030  -3.1768  -3.1558  -3.1557  -3.1096  -3.1094  -3.0769
    -3.0494  -3.0490  -3.0482  -3.0478  -3.0439  -3.0437  -3.0161  -3.0075
    -2.9684  -2.9684  -2.9473  -2.9238  -2.9208  -2.9206  -2.9143  -2.9138
    -2.9098  -2.9097  -2.8746  -2.8735  -2.8735  -2.8681  -2.8680  -2.8631
    -2.8079  -2.8020  -2.7981  -2.7978  -2.7758  -2.7757  -2.7705  -2.6818
    -2.6713  -2.6710  -2.6617  -2.6613  -2.6555  -2.6543  -2.6532  -2.6456
    -2.6454  -2.6348  -2.6274  -2.6244  -2.6240  -2.6197  -2.6097  -2.6042
    -2.6023  -2.5801  -2.5696  -2.5692  -2.5536  -2.5534  -2.5364  -2.5364
    -2.5277  -2.5275  -2.5070  -2.4943  -2.4942  -2.4890  -2.4887  -2.4549
    -2.4526  -2.4525  -2.3943  -2.3912  -2.3762  -2.3760  -2.3656  -2.3611
    -2.3380  -2.3377  -2.3337  -2.3211  -2.3207  -2.3094  -2.3088  -2.2925
    -2.2919  -2.2652  -2.2652  -2.2551  -2.2548  -2.2452  -2.2449  -2.2278
    -2.2148  -2.1942  -2.1252  -2.1238  -2.1045  -2.1043  -2.0926  -2.0924
    -2.0427  -2.0420  -2.0271  -2.0075  -1.9951  -1.9949  -1.9768  -1.9585
    -1.9584  -1.9452  -1.9384  -1.9066  -1.9057  -1.9045  -1.8976  -1.8976
    -1.8900  -1.8897  -1.8692  -1.8629  -1.8525  -1.8522  -1.8518  -1.8517
    -1.8508  -1.8501  -1.8366  -1.8166  -1.8165  -1.8132  -1.8077  -1.7950
    -1.7946  -1.7905  -1.7902  -1.7846  -1.7826  -1.7486  -1.7480  -1.7035
    -1.6846  -1.6841  -1.6386  -1.6384  -1.6383  -1.6278  -1.6272  -1.6140
    -1.6132  -1.6062  -1.6057  -1.5957  -1.5952  -1.5751  -1.5750  -1.5382
    -1.5378  -1.5206  -1.4984  -1.4981  -1.4588  -1.4585  -1.4083  -1.4081
    -1.3872  -1.3625  -1.3613  -1.3607  -1.3550  -1.3543  -1.3346  -1.3342
    -1.3335  -1.3332  -1.3314  -1.3311  -1.3304  -1.3293  -1.3278  -1.3011
    -1.3010  -1.2681  -1.2667  -1.2667  -1.2451  -1.2450  -1.2402  -1.2398
    -1.2368  -1.2264  -1.1988  -1.1983  -1.1742  -1.1732  -1.1723  -1.1615
    -1.1525  -1.1413  -1.1409  -1.1120  -1.1116  -1.1049  -1.1047  -1.0664
    -1.0659  -1.0544  -1.0540  -1.0534  -1.0531  -1.0271  -1.0268  -1.0127
    -1.0056  -1.0053  -0.9937  -0.9930  -0.9918  -0.9913  -0.9804  -0.9704
    -0.9694  -0.9629  -0.9627  -0.9559  -0.9518  -0.9516  -0.9355  -0.8939
    -0.8929  -0.8911  -0.8889  -0.8860  -0.8859  -0.8567  -0.8565  -0.8428
    -0.8255  -0.8247  -0.8167  -0.8166  -0.8084  -0.8012  -0.8000  -0.7636
    -0.7632  -0.7520  -0.7520  -0.7317  -0.7316  -0.7162  -0.6920  -0.6840
    -0.6663  -0.6659  -0.6284  -0.6282  -0.6253  -0.6252  -0.6243  -0.6183
    -0.6174  -0.6171  -0.6133  -0.6106  -0.5776  -0.5774  -0.5760  -0.5757
    -0.5751  -0.5741  -0.5607  -0.5603  -0.5321  -0.2697  -0.2638  -0.2185
    -0.2167  -0.1866  -0.1279   0.0245   0.0249   0.0554   0.3401   0.3402
     0.6803   0.6820   0.7247   0.7247   0.7743   0.7752   0.9341   0.9346
     1.0627   1.0638   1.1778   1.6732   1.7158   1.7189   1.7562   1.7565
     1.8922   1.8962   1.9497   1.9502   2.1324   2.1326   2.4177   2.4435
     2.4458   2.4655   2.8991   2.9025   2.9232   2.9250   2.9403   2.9408
     3.0062   3.0068   3.1638   3.2843   3.2856   3.4694   3.4801   3.5812
     3.6530   3.6535   3.9527   3.9537   4.0097   4.0115   4.0119   4.1579
     4.1591   4.1762   4.1811   4.4539   4.4559   4.4919   4.4925   4.6057
     4.6111   4.6720   4.6755   4.9425   5.0425   5.5549   5.5562   5.6284
     5.6389   5.7625   5.7633   5.8345   5.8346   5.8366   5.8516   5.8521
     5.9486   5.9639   6.0142   6.0566   6.2503   6.2525   6.2622   6.2633
     6.2685   6.2777   6.2864   6.3129   6.4349   6.4373   6.5076   6.5664

          k = 0.2500-0.2500-0.0833 (167653 PWs)   bands (ev):

   -19.1935  -7.0065  -6.7800  -6.2499  -6.2495  -5.8115  -5.4080  -5.3094
    -5.3091  -5.0875  -5.0875  -4.9908  -4.9901  -4.8570  -4.8494  -4.7399
    -4.6514  -4.6475  -4.6263  -4.6261  -4.4451  -4.4440  -4.4437  -4.4170
    -4.4130  -4.4125  -4.4089  -4.3555  -4.3550  -4.3527  -4.3524  -4.2889
    -4.2604  -4.2603  -4.2037  -4.2003  -4.1991  -4.1632  -4.1627  -4.1489
    -4.1446  -4.1258  -4.1258  -4.0883  -4.0562  -4.0558  -4.0535  -4.0505
    -4.0502  -4.0200  -3.9897  -3.9894  -3.9602  -3.9599  -3.9560  -3.9559
    -3.9538  -3.9479  -3.9159  -3.9153  -3.8555  -3.8551  -3.8231  -3.7965
    -3.7899  -3.7864  -3.7861  -3.7638  -3.7637  -3.7519  -3.7016  -3.7015
    -3.6957  -3.6954  -3.6103  -3.6099  -3.5881  -3.5876  -3.5533  -3.5501
    -3.5382  -3.5120  -3.5120  -3.4678  -3.4675  -3.4651  -3.4649  -3.4404
    -3.4400  -3.3598  -3.3595  -3.3578  -3.3443  -3.3284  -3.3258  -3.3129
    -3.3127  -3.3056  -3.3054  -3.2628  -3.2627  -3.2398  -3.2395  -3.2047
    -3.2035  -3.2030  -3.1768  -3.1558  -3.1557  -3.1096  -3.1094  -3.0769
    -3.0494  -3.0490  -3.0482  -3.0478  -3.0439  -3.0437  -3.0161  -3.0075
    -2.9684  -2.9684  -2.9473  -2.9238  -2.9208  -2.9206  -2.9143  -2.9138
    -2.9098  -2.9097  -2.8746  -2.8735  -2.8735  -2.8681  -2.8680  -2.8631
    -2.8079  -2.8020  -2.7981  -2.7978  -2.7758  -2.7757  -2.7705  -2.6818
    -2.6713  -2.6710  -2.6617  -2.6613  -2.6555  -2.6543  -2.6532  -2.6456
    -2.6454  -2.6348  -2.6274  -2.6244  -2.6240  -2.6197  -2.6097  -2.6042
    -2.6023  -2.5801  -2.5696  -2.5692  -2.5536  -2.5534  -2.5364  -2.5364
    -2.5277  -2.5275  -2.5070  -2.4943  -2.4942  -2.4890  -2.4887  -2.4549
    -2.4526  -2.4525  -2.3943  -2.3912  -2.3762  -2.3760  -2.3656  -2.3611
    -2.3380  -2.3377  -2.3337  -2.3211  -2.3207  -2.3094  -2.3088  -2.2925
    -2.2919  -2.2652  -2.2652  -2.2551  -2.2548  -2.2452  -2.2449  -2.2278
    -2.2148  -2.1942  -2.1252  -2.1238  -2.1045  -2.1043  -2.0926  -2.0924
    -2.0427  -2.0420  -2.0271  -2.0075  -1.9951  -1.9949  -1.9768  -1.9585
    -1.9584  -1.9452  -1.9384  -1.9066  -1.9057  -1.9045  -1.8976  -1.8976
    -1.8900  -1.8897  -1.8692  -1.8629  -1.8525  -1.8522  -1.8518  -1.8517
    -1.8508  -1.8501  -1.8366  -1.8166  -1.8165  -1.8132  -1.8077  -1.7950
    -1.7946  -1.7905  -1.7902  -1.7846  -1.7826  -1.7486  -1.7480  -1.7035
    -1.6846  -1.6841  -1.6386  -1.6384  -1.6383  -1.6278  -1.6272  -1.6140
    -1.6132  -1.6062  -1.6057  -1.5957  -1.5952  -1.5751  -1.5750  -1.5382
    -1.5378  -1.5206  -1.4984  -1.4981  -1.4588  -1.4585  -1.4083  -1.4081
    -1.3872  -1.3625  -1.3613  -1.3607  -1.3550  -1.3543  -1.3346  -1.3342
    -1.3335  -1.3332  -1.3314  -1.3311  -1.3304  -1.3293  -1.3278  -1.3011
    -1.3010  -1.2681  -1.2667  -1.2667  -1.2451  -1.2450  -1.2402  -1.2398
    -1.2368  -1.2264  -1.1988  -1.1983  -1.1742  -1.1732  -1.1723  -1.1615
    -1.1525  -1.1413  -1.1409  -1.1120  -1.1116  -1.1049  -1.1047  -1.0664
    -1.0659  -1.0544  -1.0540  -1.0534  -1.0531  -1.0271  -1.0268  -1.0127
    -1.0056  -1.0053  -0.9937  -0.9930  -0.9918  -0.9913  -0.9804  -0.9704
    -0.9694  -0.9629  -0.9627  -0.9559  -0.9518  -0.9516  -0.9355  -0.8939
    -0.8929  -0.8911  -0.8889  -0.8860  -0.8859  -0.8567  -0.8565  -0.8428
    -0.8255  -0.8247  -0.8167  -0.8166  -0.8084  -0.8012  -0.8000  -0.7636
    -0.7632  -0.7520  -0.7520  -0.7317  -0.7316  -0.7162  -0.6920  -0.6840
    -0.6663  -0.6659  -0.6284  -0.6282  -0.6253  -0.6252  -0.6243  -0.6183
    -0.6174  -0.6171  -0.6133  -0.6106  -0.5776  -0.5774  -0.5760  -0.5757
    -0.5751  -0.5741  -0.5607  -0.5603  -0.5321  -0.2697  -0.2638  -0.2185
    -0.2167  -0.1866  -0.1279   0.0245   0.0249   0.0554   0.3401   0.3402
     0.6803   0.6820   0.7247   0.7247   0.7743   0.7752   0.9341   0.9346
     1.0627   1.0638   1.1778   1.6732   1.7158   1.7189   1.7562   1.7565
     1.8922   1.8962   1.9497   1.9502   2.1324   2.1326   2.4177   2.4435
     2.4458   2.4655   2.8991   2.9025   2.9232   2.9250   2.9403   2.9408
     3.0062   3.0068   3.1638   3.2843   3.2856   3.4694   3.4801   3.5812
     3.6530   3.6535   3.9527   3.9537   4.0097   4.0115   4.0119   4.1579
     4.1591   4.1762   4.1811   4.4539   4.4559   4.4919   4.4925   4.6057
     4.6111   4.6720   4.6755   4.9425   5.0425   5.5549   5.5562   5.6284
     5.6389   5.7625   5.7633   5.8344   5.8347   5.8365   5.8516   5.8521
     5.9487   5.9639   6.0147   6.0562   6.2503   6.2525   6.2622   6.2633
     6.2685   6.2777   6.2864   6.3130   6.4348   6.4374   6.5073   6.5659

          k =-0.2500 0.2500 0.2500 (167588 PWs)   bands (ev):

   -19.1935  -7.0065  -6.7800  -6.2499  -6.2495  -5.8115  -5.4080  -5.3094
    -5.3091  -5.0875  -5.0875  -4.9908  -4.9901  -4.8570  -4.8494  -4.7399
    -4.6514  -4.6474  -4.6263  -4.6261  -4.4451  -4.4440  -4.4437  -4.4170
    -4.4130  -4.4125  -4.4089  -4.3555  -4.3550  -4.3527  -4.3524  -4.2889
    -4.2604  -4.2603  -4.2037  -4.2003  -4.1991  -4.1632  -4.1627  -4.1490
    -4.1446  -4.1258  -4.1258  -4.0883  -4.0562  -4.0558  -4.0535  -4.0505
    -4.0502  -4.0200  -3.9897  -3.9894  -3.9602  -3.9599  -3.9560  -3.9559
    -3.9538  -3.9479  -3.9159  -3.9153  -3.8555  -3.8551  -3.8231  -3.7965
    -3.7899  -3.7864  -3.7861  -3.7638  -3.7637  -3.7519  -3.7016  -3.7015
    -3.6957  -3.6954  -3.6103  -3.6099  -3.5881  -3.5876  -3.5533  -3.5501
    -3.5382  -3.5120  -3.5120  -3.4678  -3.4675  -3.4651  -3.4649  -3.4404
    -3.4400  -3.3598  -3.3595  -3.3578  -3.3443  -3.3284  -3.3258  -3.3129
    -3.3127  -3.3056  -3.3054  -3.2627  -3.2627  -3.2398  -3.2395  -3.2047
    -3.2035  -3.2030  -3.1768  -3.1558  -3.1557  -3.1096  -3.1094  -3.0769
    -3.0494  -3.0490  -3.0482  -3.0478  -3.0439  -3.0437  -3.0161  -3.0075
    -2.9684  -2.9684  -2.9473  -2.9238  -2.9208  -2.9206  -2.9143  -2.9138
    -2.9098  -2.9097  -2.8746  -2.8735  -2.8735  -2.8681  -2.8680  -2.8631
    -2.8079  -2.8020  -2.7982  -2.7978  -2.7758  -2.7757  -2.7705  -2.6818
    -2.6713  -2.6710  -2.6617  -2.6613  -2.6555  -2.6543  -2.6532  -2.6456
    -2.6454  -2.6348  -2.6274  -2.6244  -2.6240  -2.6197  -2.6097  -2.6042
    -2.6023  -2.5801  -2.5696  -2.5692  -2.5535  -2.5534  -2.5364  -2.5364
    -2.5277  -2.5275  -2.5070  -2.4943  -2.4942  -2.4890  -2.4887  -2.4550
    -2.4526  -2.4525  -2.3943  -2.3912  -2.3762  -2.3760  -2.3656  -2.3611
    -2.3380  -2.3377  -2.3337  -2.3211  -2.3207  -2.3094  -2.3088  -2.2925
    -2.2919  -2.2652  -2.2652  -2.2551  -2.2548  -2.2452  -2.2449  -2.2278
    -2.2148  -2.1942  -2.1252  -2.1238  -2.1045  -2.1043  -2.0926  -2.0924
    -2.0427  -2.0420  -2.0271  -2.0076  -1.9951  -1.9949  -1.9768  -1.9585
    -1.9584  -1.9452  -1.9384  -1.9066  -1.9057  -1.9045  -1.8976  -1.8976
    -1.8900  -1.8896  -1.8692  -1.8629  -1.8525  -1.8522  -1.8518  -1.8517
    -1.8508  -1.8501  -1.8366  -1.8166  -1.8165  -1.8132  -1.8077  -1.7949
    -1.7946  -1.7905  -1.7902  -1.7846  -1.7826  -1.7486  -1.7480  -1.7036
    -1.6846  -1.6841  -1.6386  -1.6384  -1.6383  -1.6278  -1.6272  -1.6140
    -1.6132  -1.6062  -1.6057  -1.5957  -1.5952  -1.5751  -1.5750  -1.5382
    -1.5378  -1.5206  -1.4983  -1.4981  -1.4588  -1.4586  -1.4083  -1.4081
    -1.3872  -1.3625  -1.3613  -1.3607  -1.3550  -1.3543  -1.3346  -1.3342
    -1.3335  -1.3332  -1.3314  -1.3311  -1.3304  -1.3293  -1.3278  -1.3011
    -1.3010  -1.2681  -1.2667  -1.2667  -1.2451  -1.2450  -1.2402  -1.2398
    -1.2368  -1.2264  -1.1988  -1.1983  -1.1742  -1.1732  -1.1723  -1.1615
    -1.1525  -1.1413  -1.1409  -1.1120  -1.1116  -1.1049  -1.1047  -1.0664
    -1.0659  -1.0544  -1.0540  -1.0534  -1.0531  -1.0271  -1.0268  -1.0127
    -1.0056  -1.0053  -0.9937  -0.9930  -0.9918  -0.9913  -0.9804  -0.9704
    -0.9694  -0.9629  -0.9627  -0.9559  -0.9518  -0.9516  -0.9355  -0.8939
    -0.8929  -0.8911  -0.8889  -0.8860  -0.8859  -0.8567  -0.8564  -0.8428
    -0.8255  -0.8247  -0.8167  -0.8166  -0.8084  -0.8012  -0.8000  -0.7636
    -0.7632  -0.7520  -0.7520  -0.7317  -0.7316  -0.7162  -0.6920  -0.6840
    -0.6663  -0.6659  -0.6284  -0.6282  -0.6253  -0.6252  -0.6243  -0.6183
    -0.6174  -0.6171  -0.6133  -0.6106  -0.5776  -0.5774  -0.5760  -0.5757
    -0.5751  -0.5741  -0.5607  -0.5603  -0.5321  -0.2697  -0.2638  -0.2185
    -0.2167  -0.1866  -0.1279   0.0245   0.0249   0.0554   0.3401   0.3402
     0.6803   0.6820   0.7247   0.7247   0.7743   0.7752   0.9341   0.9346
     1.0627   1.0638   1.1778   1.6732   1.7158   1.7189   1.7562   1.7565
     1.8922   1.8962   1.9497   1.9502   2.1324   2.1326   2.4177   2.4435
     2.4458   2.4655   2.8991   2.9025   2.9232   2.9250   2.9403   2.9408
     3.0062   3.0068   3.1638   3.2843   3.2856   3.4694   3.4801   3.5812
     3.6530   3.6535   3.9527   3.9537   4.0097   4.0115   4.0119   4.1579
     4.1592   4.1763   4.1812   4.4539   4.4559   4.4919   4.4925   4.6057
     4.6111   4.6720   4.6755   4.9429   5.0392   5.5549   5.5562   5.6287
     5.6384   5.7625   5.7633   5.8184   5.8345   5.8354   5.8516   5.8521
     5.9510   5.9639   6.0153   6.1027   6.2503   6.2525   6.2622   6.2632
     6.2685   6.2779   6.3191   6.3762   6.4281   6.4443   6.4893   6.5596

     the Fermi energy is     1.0062 ev

!    total energy              =   -7379.97856103 Ry
     Harris-Foulkes estimate   =   -7379.97856103 Ry
     estimated scf accuracy    <          4.3E-09 Ry

     The total energy is the sum of the following terms:

     one-electron contribution =  -48242.19703661 Ry
     hartree contribution      =   24672.27596932 Ry
     xc contribution           =   -3556.23786071 Ry
     ewald contribution        =   19746.17933553 Ry
     smearing contrib. (-TS)   =       0.00103143 Ry

     convergence has been achieved in  28 iterations

     Writing output data file 3975323.save

     init_run     :    113.41s CPU    119.28s WALL (       1 calls)
     electrons    :   7714.93s CPU   7994.82s WALL (       1 calls)

     Called by init_run:
     wfcinit      :     80.13s CPU     85.66s WALL (       1 calls)
     potinit      :      3.39s CPU      3.46s WALL (       1 calls)

     Called by electrons:
     c_bands      :   5934.51s CPU   6164.85s WALL (      29 calls)
     sum_band     :   1173.22s CPU   1217.16s WALL (      29 calls)
     v_of_rho     :     20.68s CPU     21.95s WALL (      29 calls)
     newd         :    600.48s CPU    604.21s WALL (      29 calls)
     mix_rho      :      4.14s CPU      4.44s WALL (      29 calls)

     Called by c_bands:
     init_us_2    :      8.36s CPU      8.66s WALL (     354 calls)
     cegterg      :   5867.47s CPU   6097.00s WALL (     174 calls)

     Called by *egterg:
     h_psi        :   2477.77s CPU   2679.55s WALL (    1027 calls)
     s_psi        :    363.06s CPU    364.86s WALL (    1027 calls)
     g_psi        :      4.71s CPU      4.65s WALL (     847 calls)
     cdiaghg      :   1778.00s CPU   1782.55s WALL (    1015 calls)

     Called by h_psi:
     add_vuspsi   :    363.66s CPU    365.41s WALL (    1027 calls)

     General routines
     calbec       :    560.94s CPU    562.59s WALL (    1201 calls)
     fft          :    345.05s CPU    347.73s WALL (     464 calls)
     ffts         :      2.07s CPU      2.23s WALL (      58 calls)
     fftw         :   2065.95s CPU   2295.65s WALL (  467816 calls)
     interpolate  :      5.27s CPU      5.76s WALL (      58 calls)
     davcio       :      0.00s CPU      0.10s WALL (       6 calls)

     Parallel routines
     fft_scatter  :   1853.08s CPU   2058.30s WALL (  468338 calls)

     PWSCF        :     2h10m CPU        2h15m WALL


   This run was terminated on:  20:42:58   9Aug2015            

=------------------------------------------------------------------------------=
   JOB DONE.
=------------------------------------------------------------------------------=
