
     Program PWSCF v.5.1.2 starts on  9Aug2015 at 20:27:29 

     This program is part of the open-source Quantum ESPRESSO suite
     for quantum simulation of materials; please cite
         "P. Giannozzi et al., J. Phys.:Condens. Matter 21 395502 (2009);
          URL http://www.quantum-espresso.org", 
     in publications or presentations arising from this work. More details at
     http://www.quantum-espresso.org/quote

     Parallel version (MPI), running on    32 processors
     R & G space division:  proc/nbgrp/npool/nimage =      32
     Reading input from bridge.O1.Au6165.d.2.7.phi.0.psi.90.in
Warning: card &IONS ignored
Warning: card / ignored
Warning: card &CELL ignored
Warning: card / ignored

     Current dimensions of program PWSCF are:
     Max number of different atomic species (ntypx) = 10
     Max number of k-points (npk) =  40000
     Max angular momentum in pseudopotentials (lmaxx) =  3

     Subspace diagonalization in iterative solution of the eigenvalue problem:
     a serial algorithm will be used


     Parallelization info
     --------------------
     sticks:   dense  smooth     PW     G-vecs:    dense   smooth      PW
     Min         578     289     74               118518    41891    5486
     Max         579     290     75               118533    41932    5497
     Sum       18505    9265   2385              3792731  1341081  175711


     Title: 
     bridge.O1.Au6165.d.2.7.phi.0.psi.90                                        


     bravais-lattice index     =            8
     lattice parameter (alat)  =      24.1233  a.u.
     unit-cell volume          =   28076.2361 (a.u.)^3
     number of atoms/cell      =           75
     number of atomic types    =            3
     number of electrons       =       800.00
     number of Kohn-Sham states=          480
     kinetic-energy cutoff     =      50.0000  Ry
     charge density cutoff     =     400.0000  Ry
     convergence threshold     =      1.0E-08
     mixing beta               =       0.7000
     number of iterations used =            8  plain     mixing
     Exchange-correlation      =  SLA  PW   PBE  PBE ( 1  4  3  4 0 0)

     celldm(1)=  24.123277  celldm(2)=   1.000000  celldm(3)=   2.000000
     celldm(4)=   0.000000  celldm(5)=   0.000000  celldm(6)=   0.000000

     crystal axes: (cart. coord. in units of alat)
               a(1) = (   1.000000   0.000000   0.000000 )  
               a(2) = (   0.000000   1.000000   0.000000 )  
               a(3) = (   0.000000   0.000000   2.000000 )  

     reciprocal axes: (cart. coord. in units 2 pi/alat)
               b(1) = (  1.000000  0.000000  0.000000 )  
               b(2) = (  0.000000  1.000000  0.000000 )  
               b(3) = (  0.000000  0.000000  0.500000 )  


     PseudoPot. # 1 for Au read from file:
     /home/scc/andrejb/qe/pseudo/Au.pbe-nd-van.UPF
     MD5 check sum: 458681b50f36d87ef23c61b04bba420a
     Pseudo is Ultrasoft + core correction, Zval = 11.0
     Generated by new atomic code, or converted to UPF format
     Using radial grid of  985 points,  3 beta functions with: 
                l(1) =   1
                l(2) =   2
                l(3) =   2
     Q(r) pseudized with  8 coefficients,  rinner =    1.100   1.100   1.100
                                                       1.100   1.100

     PseudoPot. # 2 for H  read from file:
     /home/scc/andrejb/qe/pseudo/H.pbe-van_ak.UPF
     MD5 check sum: 403db7282739603aa925980fa9b8608d
     Pseudo is Ultrasoft, Zval =  1.0
     Generated by new atomic code, or converted to UPF format
     Using radial grid of  615 points,  1 beta functions with: 
                l(1) =   0
     Q(r) pseudized with  8 coefficients,  rinner =    0.800

     PseudoPot. # 3 for O  read from file:
     /home/scc/andrejb/qe/pseudo/O.pbe-van_ak.UPF
     MD5 check sum: 4b8c549914a63cae506c6ff22b5af4fe
     Pseudo is Ultrasoft, Zval =  6.0
     Generated by new atomic code, or converted to UPF format
     Using radial grid of  737 points,  4 beta functions with: 
                l(1) =   0
                l(2) =   0
                l(3) =   1
                l(4) =   1
     Q(r) pseudized with  8 coefficients,  rinner =    0.800   0.800   0.800


     atomic species   valence    mass     pseudopotential
        Au            11.00   196.96657     Au( 1.00)
        H              1.00     1.01000     H ( 1.00)
        O              6.00    16.00000     O ( 1.00)

     No symmetry found



   Cartesian axes

     site n.     atom                  positions (alat units)
         1           O   tau(   1) = (   0.2499161   0.4165269   0.9066668  )
         2           H   tau(   2) = (   0.2028385   0.3710330   0.8674953  )
         3           H   tau(   3) = (   0.2955663   0.3686692   0.9446685  )
         4           Au  tau(   4) = (   0.0000000   0.0000000   0.0000000  )
         5           Au  tau(   5) = (   0.3332217   0.0000000   0.0000000  )
         6           Au  tau(   6) = (   0.6664434   0.0000000   0.0000000  )
         7           Au  tau(   7) = (   0.1666109   0.1666109   0.0000000  )
         8           Au  tau(   8) = (   0.4998326   0.1666109   0.0000000  )
         9           Au  tau(   9) = (   0.8330542   0.1666109   0.0000000  )
        10           Au  tau(  10) = (   0.0000000   0.3332217   0.0000000  )
        11           Au  tau(  11) = (   0.3332217   0.3332217   0.0000000  )
        12           Au  tau(  12) = (   0.6664434   0.3332217   0.0000000  )
        13           Au  tau(  13) = (   0.1666109   0.4998326   0.0000000  )
        14           Au  tau(  14) = (   0.4998326   0.4998326   0.0000000  )
        15           Au  tau(  15) = (   0.8330542   0.4998326   0.0000000  )
        16           Au  tau(  16) = (   0.0000000   0.6664434   0.0000000  )
        17           Au  tau(  17) = (   0.3332217   0.6664434   0.0000000  )
        18           Au  tau(  18) = (   0.6664434   0.6664434   0.0000000  )
        19           Au  tau(  19) = (   0.1666109   0.8330542   0.0000000  )
        20           Au  tau(  20) = (   0.4998326   0.8330542   0.0000000  )
        21           Au  tau(  21) = (   0.8330542   0.8330542   0.0000000  )
        22           Au  tau(  22) = (   0.1666109   0.0000000   0.1666109  )
        23           Au  tau(  23) = (   0.4998326   0.0000000   0.1666109  )
        24           Au  tau(  24) = (   0.8330542   0.0000000   0.1666109  )
        25           Au  tau(  25) = (   0.0000000   0.1666109   0.1666109  )
        26           Au  tau(  26) = (   0.3332217   0.1666109   0.1666109  )
        27           Au  tau(  27) = (   0.6664434   0.1666109   0.1666109  )
        28           Au  tau(  28) = (   0.1666109   0.3332217   0.1666109  )
        29           Au  tau(  29) = (   0.4998326   0.3332217   0.1666109  )
        30           Au  tau(  30) = (   0.8330542   0.3332217   0.1666109  )
        31           Au  tau(  31) = (   0.0000000   0.4998326   0.1666109  )
        32           Au  tau(  32) = (   0.3332217   0.4998326   0.1666109  )
        33           Au  tau(  33) = (   0.6664434   0.4998326   0.1666109  )
        34           Au  tau(  34) = (   0.1666109   0.6664434   0.1666109  )
        35           Au  tau(  35) = (   0.4998326   0.6664434   0.1666109  )
        36           Au  tau(  36) = (   0.8330542   0.6664434   0.1666109  )
        37           Au  tau(  37) = (   0.0000000   0.8330542   0.1666109  )
        38           Au  tau(  38) = (   0.3332217   0.8330542   0.1666109  )
        39           Au  tau(  39) = (   0.6664434   0.8330542   0.1666109  )
        40           Au  tau(  40) = (  -0.0000182  -0.0000182   0.3335478  )
        41           Au  tau(  41) = (   0.3332215  -0.0000181   0.3335473  )
        42           Au  tau(  42) = (   0.6664447  -0.0000183   0.3335481  )
        43           Au  tau(  43) = (  -0.0000181   0.3332215   0.3335473  )
        44           Au  tau(  44) = (   0.3332215   0.3332215   0.3335468  )
        45           Au  tau(  45) = (   0.6664445   0.3332215   0.3335477  )
        46           Au  tau(  46) = (  -0.0000183   0.6664447   0.3335481  )
        47           Au  tau(  47) = (   0.3332215   0.6664445   0.3335477  )
        48           Au  tau(  48) = (   0.6664446   0.6664446   0.3335486  )
        49           Au  tau(  49) = (   0.1666097   0.1666097   0.3335483  )
        50           Au  tau(  50) = (   0.4998320   0.1666098   0.3335477  )
        51           Au  tau(  51) = (   0.8330732   0.1666096   0.3335480  )
        52           Au  tau(  52) = (   0.1666098   0.4998320   0.3335477  )
        53           Au  tau(  53) = (   0.4998322   0.4998322   0.3335470  )
        54           Au  tau(  54) = (   0.8330731   0.4998322   0.3335474  )
        55           Au  tau(  55) = (   0.1666096   0.8330732   0.3335480  )
        56           Au  tau(  56) = (   0.4998322   0.8330731   0.3335474  )
        57           Au  tau(  57) = (   0.8330731   0.8330731   0.3335478  )
        58           Au  tau(  58) = (   0.1666104  -0.0000111   0.4993095  )
        59           Au  tau(  59) = (   0.4998323  -0.0000112   0.4993099  )
        60           Au  tau(  60) = (   0.8330660  -0.0000111   0.4993009  )
        61           Au  tau(  61) = (  -0.0000111   0.1666104   0.4993095  )
        62           Au  tau(  62) = (   0.3332213   0.1666106   0.4993185  )
        63           Au  tau(  63) = (   0.6664437   0.1666106   0.4993187  )
        64           Au  tau(  64) = (   0.1666106   0.3332213   0.4993185  )
        65           Au  tau(  65) = (   0.4998324   0.3332216   0.4993185  )
        66           Au  tau(  66) = (   0.8330658   0.3332215   0.4993102  )
        67           Au  tau(  67) = (  -0.0000112   0.4998323   0.4993099  )
        68           Au  tau(  68) = (   0.3332216   0.4998324   0.4993185  )
        69           Au  tau(  69) = (   0.6664437   0.4998325   0.4993187  )
        70           Au  tau(  70) = (   0.1666106   0.6664437   0.4993187  )
        71           Au  tau(  71) = (   0.4998325   0.6664437   0.4993187  )
        72           Au  tau(  72) = (   0.8330658   0.6664438   0.4993102  )
        73           Au  tau(  73) = (  -0.0000111   0.8330660   0.4993009  )
        74           Au  tau(  74) = (   0.3332215   0.8330658   0.4993102  )
        75           Au  tau(  75) = (   0.6664438   0.8330658   0.4993102  )

     number of k points=     6  Marzari-Vanderbilt smearing, width (Ry)=  0.0200
                       cart. coord. in units 2pi/alat
        k(    1) = (   0.2500000   0.2500000   0.0833333), wk =   0.3333333
        k(    2) = (   0.2500000   0.2500000  -0.2500000), wk =   0.3333333
        k(    3) = (  -0.2500000  -0.2500000   0.0833333), wk =   0.3333333
        k(    4) = (  -0.2500000   0.2500000  -0.0833333), wk =   0.3333333
        k(    5) = (   0.2500000  -0.2500000  -0.0833333), wk =   0.3333333
        k(    6) = (  -0.2500000   0.2500000   0.2500000), wk =   0.3333333

     Dense  grid:  3792731 G-vectors     FFT dimensions: ( 160, 160, 320)

     Smooth grid:  1341081 G-vectors     FFT dimensions: ( 120, 120, 225)

     Largest allocated arrays     est. size (Mb)     dimensions
        Kohn-Sham Wavefunctions        38.58 Mb     (    5267,  480)
        NL pseudopotentials            76.03 Mb     (    5267,  946)
        Each V/rho on FFT grid          3.91 Mb     (  256000)
        Each G-vector array             0.90 Mb     (  118520)
        G-vector shells                 0.08 Mb     (   10286)
     Largest temporary arrays     est. size (Mb)     dimensions
        Auxiliary wavefunctions       154.31 Mb     (    5267, 1920)
        Each subspace H/S matrix       56.25 Mb     (    1920, 1920)
        Each <psi_i|beta_j> matrix      6.93 Mb     (     946,  480)
        Arrays for rho mixing          31.25 Mb     (  256000,    8)

     Initial potential from superposition of free atoms
     Check: negative starting charge=   -1.944771

     starting charge  799.16392, renormalised to  800.00000

     negative rho (up, down):  1.947E+00 0.000E+00
     Starting wfc are  654 randomized atomic wfcs

     total cpu time spent up to now is       98.9 secs

     Self-consistent Calculation

     iteration #  1     ecut=    50.00 Ry     beta=0.70
     Davidson diagonalization with overlap
     ethr =  1.00E-02,  avg # of iterations =  3.0

     Threshold (ethr) on eigenvalues was too large:
     Diagonalizing with lowered threshold

     Davidson diagonalization with overlap
     ethr =  5.01E-04,  avg # of iterations =  2.0

     negative rho (up, down):  1.932E+00 0.000E+00

     total cpu time spent up to now is      477.5 secs

     total energy              =   -7377.39796591 Ry
     Harris-Foulkes estimate   =   -7380.96354859 Ry
     estimated scf accuracy    <       4.52627282 Ry

     iteration #  2     ecut=    50.00 Ry     beta=0.70
     Davidson diagonalization with overlap
     ethr =  5.66E-04,  avg # of iterations = 11.3

     negative rho (up, down):  1.930E+00 0.000E+00

     total cpu time spent up to now is     1202.9 secs

     total energy              =   -7368.71507627 Ry
     Harris-Foulkes estimate   =   -7387.99325248 Ry
     estimated scf accuracy    <      99.28460670 Ry

     iteration #  3     ecut=    50.00 Ry     beta=0.70
     Davidson diagonalization with overlap
     ethr =  5.66E-04,  avg # of iterations =  6.0

     negative rho (up, down):  1.947E+00 0.000E+00

     total cpu time spent up to now is     1634.0 secs

     total energy              =   -7378.53465187 Ry
     Harris-Foulkes estimate   =   -7380.72303247 Ry
     estimated scf accuracy    <       8.76159298 Ry

     iteration #  4     ecut=    50.00 Ry     beta=0.70
     Davidson diagonalization with overlap
     ethr =  5.66E-04,  avg # of iterations =  6.5

     negative rho (up, down):  1.951E+00 0.000E+00

     total cpu time spent up to now is     1888.2 secs

     total energy              =   -7379.39593063 Ry
     Harris-Foulkes estimate   =   -7380.39282454 Ry
     estimated scf accuracy    <       4.71965398 Ry

     iteration #  5     ecut=    50.00 Ry     beta=0.70
     Davidson diagonalization with overlap
     ethr =  5.66E-04,  avg # of iterations =  6.0

     negative rho (up, down):  1.960E+00 0.000E+00

     total cpu time spent up to now is     2127.9 secs

     total energy              =   -7379.59675826 Ry
     Harris-Foulkes estimate   =   -7380.45023409 Ry
     estimated scf accuracy    <       7.27806732 Ry

     iteration #  6     ecut=    50.00 Ry     beta=0.70
     Davidson diagonalization with overlap
     ethr =  5.66E-04,  avg # of iterations =  4.5

     negative rho (up, down):  1.965E+00 0.000E+00

     total cpu time spent up to now is     2335.0 secs

     total energy              =   -7379.97899772 Ry
     Harris-Foulkes estimate   =   -7380.01673996 Ry
     estimated scf accuracy    <       0.12028913 Ry

     iteration #  7     ecut=    50.00 Ry     beta=0.70
     Davidson diagonalization with overlap
     ethr =  1.50E-05,  avg # of iterations = 12.8

     negative rho (up, down):  1.967E+00 0.000E+00

     total cpu time spent up to now is     2742.9 secs

     total energy              =   -7379.97147444 Ry
     Harris-Foulkes estimate   =   -7380.01749246 Ry
     estimated scf accuracy    <       0.24044730 Ry

     iteration #  8     ecut=    50.00 Ry     beta=0.70
     Davidson diagonalization with overlap
     ethr =  1.50E-05,  avg # of iterations =  3.3

     negative rho (up, down):  1.968E+00 0.000E+00

     total cpu time spent up to now is     2932.9 secs

     total energy              =   -7379.98114788 Ry
     Harris-Foulkes estimate   =   -7379.99866711 Ry
     estimated scf accuracy    <       0.07200624 Ry

     iteration #  9     ecut=    50.00 Ry     beta=0.70
     Davidson diagonalization with overlap
     ethr =  9.00E-06,  avg # of iterations =  7.2

     negative rho (up, down):  1.969E+00 0.000E+00

     total cpu time spent up to now is     3169.1 secs

     total energy              =   -7379.97875180 Ry
     Harris-Foulkes estimate   =   -7379.99033757 Ry
     estimated scf accuracy    <       0.03942799 Ry

     iteration # 10     ecut=    50.00 Ry     beta=0.70
     Davidson diagonalization with overlap
     ethr =  4.93E-06,  avg # of iterations = 11.3

     negative rho (up, down):  1.971E+00 0.000E+00

     total cpu time spent up to now is     3454.6 secs

     total energy              =   -7379.97872087 Ry
     Harris-Foulkes estimate   =   -7379.98382451 Ry
     estimated scf accuracy    <       0.01405948 Ry

     iteration # 11     ecut=    50.00 Ry     beta=0.70
     Davidson diagonalization with overlap
     c_bands:  1 eigenvalues not converged
     ethr =  1.76E-06,  avg # of iterations = 14.5

     negative rho (up, down):  1.971E+00 0.000E+00

     total cpu time spent up to now is     3782.3 secs

     total energy              =   -7379.97891040 Ry
     Harris-Foulkes estimate   =   -7379.98089618 Ry
     estimated scf accuracy    <       0.00650335 Ry

     iteration # 12     ecut=    50.00 Ry     beta=0.70
     Davidson diagonalization with overlap
     ethr =  8.13E-07,  avg # of iterations =  7.7

     negative rho (up, down):  1.972E+00 0.000E+00

     total cpu time spent up to now is     4019.5 secs

     total energy              =   -7379.97845226 Ry
     Harris-Foulkes estimate   =   -7379.97953756 Ry
     estimated scf accuracy    <       0.00148725 Ry

     iteration # 13     ecut=    50.00 Ry     beta=0.70
     Davidson diagonalization with overlap
     ethr =  1.86E-07,  avg # of iterations = 10.3

     negative rho (up, down):  1.971E+00 0.000E+00

     total cpu time spent up to now is     4345.3 secs

     total energy              =   -7379.97842781 Ry
     Harris-Foulkes estimate   =   -7379.97909668 Ry
     estimated scf accuracy    <       0.00226773 Ry

     iteration # 14     ecut=    50.00 Ry     beta=0.70
     Davidson diagonalization with overlap
     ethr =  1.86E-07,  avg # of iterations =  2.0

     negative rho (up, down):  1.971E+00 0.000E+00

     total cpu time spent up to now is     4528.5 secs

     total energy              =   -7379.97868913 Ry
     Harris-Foulkes estimate   =   -7379.97883188 Ry
     estimated scf accuracy    <       0.00048318 Ry

     iteration # 15     ecut=    50.00 Ry     beta=0.70
     Davidson diagonalization with overlap
     ethr =  6.04E-08,  avg # of iterations =  3.0

     negative rho (up, down):  1.971E+00 0.000E+00

     total cpu time spent up to now is     4730.7 secs

     total energy              =   -7379.97859606 Ry
     Harris-Foulkes estimate   =   -7379.97895860 Ry
     estimated scf accuracy    <       0.00242302 Ry

     iteration # 16     ecut=    50.00 Ry     beta=0.70
     Davidson diagonalization with overlap
     ethr =  6.04E-08,  avg # of iterations =  2.0

     negative rho (up, down):  1.971E+00 0.000E+00

     total cpu time spent up to now is     4909.1 secs

     total energy              =   -7379.97875644 Ry
     Harris-Foulkes estimate   =   -7379.97880866 Ry
     estimated scf accuracy    <       0.00035932 Ry

     iteration # 17     ecut=    50.00 Ry     beta=0.70
     Davidson diagonalization with overlap
     ethr =  4.49E-08,  avg # of iterations =  1.0

     negative rho (up, down):  1.971E+00 0.000E+00

     total cpu time spent up to now is     5070.9 secs

     total energy              =   -7379.97878114 Ry
     Harris-Foulkes estimate   =   -7379.97879181 Ry
     estimated scf accuracy    <       0.00004175 Ry

     iteration # 18     ecut=    50.00 Ry     beta=0.70
     Davidson diagonalization with overlap
     ethr =  5.22E-09,  avg # of iterations =  2.0

     negative rho (up, down):  1.971E+00 0.000E+00

     total cpu time spent up to now is     5248.5 secs

     total energy              =   -7379.97878502 Ry
     Harris-Foulkes estimate   =   -7379.97878876 Ry
     estimated scf accuracy    <       0.00001271 Ry

     iteration # 19     ecut=    50.00 Ry     beta=0.70
     Davidson diagonalization with overlap
     ethr =  1.59E-09,  avg # of iterations =  2.0

     negative rho (up, down):  1.971E+00 0.000E+00

     total cpu time spent up to now is     5427.2 secs

     total energy              =   -7379.97878605 Ry
     Harris-Foulkes estimate   =   -7379.97878833 Ry
     estimated scf accuracy    <       0.00001074 Ry

     iteration # 20     ecut=    50.00 Ry     beta=0.70
     Davidson diagonalization with overlap
     ethr =  1.34E-09,  avg # of iterations =  2.0

     negative rho (up, down):  1.971E+00 0.000E+00

     total cpu time spent up to now is     5601.2 secs

     total energy              =   -7379.97878712 Ry
     Harris-Foulkes estimate   =   -7379.97878757 Ry
     estimated scf accuracy    <       0.00000158 Ry

     iteration # 21     ecut=    50.00 Ry     beta=0.70
     Davidson diagonalization with overlap
     ethr =  1.98E-10,  avg # of iterations =  2.0

     negative rho (up, down):  1.971E+00 0.000E+00

     total cpu time spent up to now is     5783.8 secs

     total energy              =   -7379.97878729 Ry
     Harris-Foulkes estimate   =   -7379.97878750 Ry
     estimated scf accuracy    <       0.00000080 Ry

     iteration # 22     ecut=    50.00 Ry     beta=0.70
     Davidson diagonalization with overlap
     ethr =  1.01E-10,  avg # of iterations =  2.0

     negative rho (up, down):  1.971E+00 0.000E+00

     total cpu time spent up to now is     5969.0 secs

     total energy              =   -7379.97878734 Ry
     Harris-Foulkes estimate   =   -7379.97878748 Ry
     estimated scf accuracy    <       0.00000050 Ry

     iteration # 23     ecut=    50.00 Ry     beta=0.70
     Davidson diagonalization with overlap
     ethr =  6.28E-11,  avg # of iterations =  2.0

     negative rho (up, down):  1.971E+00 0.000E+00

     total cpu time spent up to now is     6149.3 secs

     total energy              =   -7379.97878740 Ry
     Harris-Foulkes estimate   =   -7379.97878743 Ry
     estimated scf accuracy    <       0.00000007 Ry

     iteration # 24     ecut=    50.00 Ry     beta=0.70
     Davidson diagonalization with overlap
     ethr =  9.18E-12,  avg # of iterations =  3.0

     negative rho (up, down):  1.971E+00 0.000E+00

     total cpu time spent up to now is     6424.8 secs

     total energy              =   -7379.97878740 Ry
     Harris-Foulkes estimate   =   -7379.97878744 Ry
     estimated scf accuracy    <       0.00000019 Ry

     iteration # 25     ecut=    50.00 Ry     beta=0.70
     Davidson diagonalization with overlap
     ethr =  9.18E-12,  avg # of iterations =  2.0

     negative rho (up, down):  1.971E+00 0.000E+00

     total cpu time spent up to now is     6685.4 secs

     total energy              =   -7379.97878742 Ry
     Harris-Foulkes estimate   =   -7379.97878742 Ry
     estimated scf accuracy    <       0.00000001 Ry

     iteration # 26     ecut=    50.00 Ry     beta=0.70
     Davidson diagonalization with overlap
     ethr =  1.69E-12,  avg # of iterations =  3.0

     negative rho (up, down):  1.971E+00 0.000E+00

     total cpu time spent up to now is     6963.2 secs

     total energy              =   -7379.97878741 Ry
     Harris-Foulkes estimate   =   -7379.97878743 Ry
     estimated scf accuracy    <       0.00000018 Ry

     iteration # 27     ecut=    50.00 Ry     beta=0.70
     Davidson diagonalization with overlap
     ethr =  1.69E-12,  avg # of iterations =  2.0

     negative rho (up, down):  1.971E+00 0.000E+00

     total cpu time spent up to now is     7220.2 secs

     End of self-consistent calculation

          k = 0.2500 0.2500 0.0833 (167653 PWs)   bands (ev):

   -19.1325  -6.9455  -6.8516  -6.3213  -6.3212  -5.8831  -5.4796  -5.3809
    -5.3808  -5.1591  -5.1591  -5.0621  -5.0620  -4.9286  -4.9210  -4.8115
    -4.7231  -4.7189  -4.6978  -4.6978  -4.5167  -4.5155  -4.5154  -4.4889
    -4.4846  -4.4841  -4.4802  -4.4269  -4.4268  -4.4242  -4.4241  -4.3605
    -4.3320  -4.3320  -4.2752  -4.2720  -4.2707  -4.2346  -4.2345  -4.2207
    -4.2161  -4.1974  -4.1974  -4.1603  -4.1278  -4.1276  -4.1248  -4.1219
    -4.1218  -4.0916  -4.0612  -4.0611  -4.0316  -4.0316  -4.0276  -4.0276
    -4.0256  -4.0193  -3.9872  -3.9870  -3.9270  -3.9268  -3.8946  -3.8685
    -3.8612  -3.8579  -3.8575  -3.8354  -3.8353  -3.8235  -3.7732  -3.7731
    -3.7672  -3.7672  -3.6817  -3.6816  -3.6595  -3.6594  -3.6249  -3.6226
    -3.6088  -3.5836  -3.5836  -3.5392  -3.5392  -3.5367  -3.5366  -3.5119
    -3.5118  -3.4315  -3.4312  -3.4300  -3.4151  -3.4002  -3.3972  -3.3845
    -3.3844  -3.3771  -3.3771  -3.3343  -3.3343  -3.3114  -3.3114  -3.2748
    -3.2747  -3.2484  -3.2273  -3.2273  -3.1811  -3.1811  -3.1485  -3.1424
    -3.1209  -3.1206  -3.1198  -3.1194  -3.1154  -3.1154  -3.0884  -3.0784
    -3.0400  -3.0400  -3.0189  -2.9954  -2.9924  -2.9922  -2.9856  -2.9856
    -2.9813  -2.9813  -2.9462  -2.9452  -2.9452  -2.9397  -2.9396  -2.9347
    -2.8792  -2.8740  -2.8696  -2.8695  -2.8474  -2.8473  -2.8421  -2.7534
    -2.7428  -2.7427  -2.7331  -2.7330  -2.7273  -2.7260  -2.7250  -2.7171
    -2.7171  -2.7064  -2.6991  -2.6958  -2.6957  -2.6912  -2.6812  -2.6760
    -2.6739  -2.6517  -2.6410  -2.6409  -2.6251  -2.6251  -2.6081  -2.6081
    -2.5992  -2.5992  -2.5786  -2.5658  -2.5658  -2.5605  -2.5604  -2.5265
    -2.5242  -2.5241  -2.4662  -2.4625  -2.4477  -2.4477  -2.4371  -2.4328
    -2.4096  -2.4095  -2.4053  -2.3925  -2.3924  -2.3808  -2.3807  -2.3640
    -2.3638  -2.3368  -2.3368  -2.3265  -2.3265  -2.3167  -2.3166  -2.2994
    -2.2864  -2.2657  -2.1969  -2.1953  -2.1760  -2.1760  -2.1641  -2.1640
    -2.1140  -2.1138  -2.0987  -2.0792  -2.0666  -2.0666  -2.0484  -2.0300
    -2.0300  -2.0168  -2.0100  -1.9788  -1.9786  -1.9762  -1.9682  -1.9682
    -1.9615  -1.9614  -1.9422  -1.9332  -1.9239  -1.9239  -1.9234  -1.9233
    -1.9222  -1.9220  -1.9082  -1.8882  -1.8881  -1.8847  -1.8793  -1.8665
    -1.8664  -1.8620  -1.8619  -1.8561  -1.8542  -1.8199  -1.8197  -1.7752
    -1.7560  -1.7559  -1.7101  -1.7101  -1.7099  -1.6992  -1.6991  -1.6853
    -1.6851  -1.6776  -1.6775  -1.6671  -1.6670  -1.6466  -1.6466  -1.6097
    -1.6096  -1.5922  -1.5699  -1.5698  -1.5303  -1.5303  -1.4798  -1.4797
    -1.4588  -1.4346  -1.4323  -1.4323  -1.4270  -1.4255  -1.4060  -1.4060
    -1.4051  -1.4048  -1.4029  -1.4028  -1.4020  -1.4010  -1.3996  -1.3727
    -1.3726  -1.3397  -1.3385  -1.3385  -1.3164  -1.3164  -1.3116  -1.3115
    -1.3084  -1.2981  -1.2703  -1.2701  -1.2459  -1.2445  -1.2442  -1.2241
    -1.2128  -1.2127  -1.1834  -1.1833  -1.1766  -1.1764  -1.1379  -1.1377
    -1.1258  -1.1257  -1.1249  -1.1248  -1.1027  -1.0986  -1.0985  -1.0843
    -1.0770  -1.0770  -1.0650  -1.0649  -1.0632  -1.0630  -1.0520  -1.0420
    -1.0410  -1.0344  -1.0343  -1.0274  -1.0234  -1.0232  -1.0070  -0.9652
    -0.9637  -0.9630  -0.9613  -0.9584  -0.9566  -0.9282  -0.9282  -0.9144
    -0.8967  -0.8966  -0.8883  -0.8882  -0.8800  -0.8733  -0.8710  -0.8350
    -0.8349  -0.8236  -0.8236  -0.8033  -0.8032  -0.7877  -0.7636  -0.7555
    -0.7378  -0.7377  -0.7000  -0.6999  -0.6967  -0.6965  -0.6963  -0.6903
    -0.6889  -0.6889  -0.6846  -0.6822  -0.6491  -0.6490  -0.6478  -0.6474
    -0.6463  -0.6458  -0.6321  -0.6320  -0.6037  -0.3426  -0.3342  -0.2894
    -0.2890  -0.2582  -0.1995  -0.0469  -0.0469  -0.0162   0.2686   0.2686
     0.6093   0.6098   0.6531   0.6531   0.7031   0.7033   0.8627   0.8629
     0.9908   0.9924   1.1061   1.6016   1.6430   1.6485   1.6845   1.6850
     1.8218   1.8232   1.8783   1.8785   2.0609   2.0610   2.3459   2.3728
     2.3733   2.3939   2.8284   2.8297   2.8520   2.8530   2.8689   2.8690
     2.9346   2.9353   3.0911   3.2128   3.2135   3.4009   3.4053   3.5096
     3.5816   3.5817   3.8812   3.8817   3.9381   3.9398   3.9399   4.0868
     4.0871   4.0987   4.1103   4.3833   4.3833   4.4200   4.4206   4.5348
     4.5386   4.6007   4.6026   4.8700   5.1216   5.4835   5.4849   5.5643
     5.5703   5.6911   5.6914   5.7629   5.7632   5.7802   5.7803   5.8607
     5.8879   5.8934   6.0232   6.1658   6.1795   6.1803   6.1908   6.1931
     6.1954   6.2072   6.2996   6.3454   6.3706   6.3849   6.4804   6.5019

          k = 0.2500 0.2500-0.2500 (167588 PWs)   bands (ev):

   -19.1325  -6.9455  -6.8516  -6.3213  -6.3212  -5.8831  -5.4796  -5.3809
    -5.3808  -5.1591  -5.1591  -5.0621  -5.0620  -4.9286  -4.9210  -4.8115
    -4.7231  -4.7189  -4.6978  -4.6978  -4.5167  -4.5155  -4.5154  -4.4889
    -4.4846  -4.4841  -4.4802  -4.4269  -4.4268  -4.4242  -4.4241  -4.3605
    -4.3320  -4.3320  -4.2752  -4.2720  -4.2707  -4.2346  -4.2345  -4.2207
    -4.2161  -4.1974  -4.1974  -4.1603  -4.1278  -4.1276  -4.1248  -4.1219
    -4.1218  -4.0916  -4.0612  -4.0611  -4.0316  -4.0316  -4.0276  -4.0276
    -4.0256  -4.0193  -3.9872  -3.9870  -3.9270  -3.9268  -3.8947  -3.8685
    -3.8612  -3.8579  -3.8575  -3.8354  -3.8353  -3.8235  -3.7732  -3.7731
    -3.7672  -3.7672  -3.6817  -3.6816  -3.6595  -3.6594  -3.6249  -3.6226
    -3.6088  -3.5836  -3.5836  -3.5392  -3.5392  -3.5367  -3.5366  -3.5119
    -3.5118  -3.4315  -3.4312  -3.4300  -3.4151  -3.4002  -3.3972  -3.3845
    -3.3844  -3.3771  -3.3771  -3.3343  -3.3343  -3.3114  -3.3114  -3.2748
    -3.2747  -3.2484  -3.2273  -3.2273  -3.1811  -3.1810  -3.1485  -3.1424
    -3.1209  -3.1206  -3.1198  -3.1194  -3.1154  -3.1154  -3.0884  -3.0784
    -3.0400  -3.0400  -3.0189  -2.9954  -2.9924  -2.9922  -2.9856  -2.9856
    -2.9813  -2.9813  -2.9462  -2.9452  -2.9451  -2.9397  -2.9396  -2.9347
    -2.8792  -2.8740  -2.8696  -2.8695  -2.8474  -2.8473  -2.8421  -2.7534
    -2.7428  -2.7427  -2.7331  -2.7330  -2.7273  -2.7260  -2.7250  -2.7171
    -2.7171  -2.7064  -2.6991  -2.6957  -2.6957  -2.6912  -2.6811  -2.6760
    -2.6739  -2.6517  -2.6410  -2.6409  -2.6251  -2.6251  -2.6081  -2.6081
    -2.5992  -2.5992  -2.5786  -2.5658  -2.5658  -2.5605  -2.5604  -2.5266
    -2.5242  -2.5241  -2.4662  -2.4625  -2.4477  -2.4477  -2.4371  -2.4328
    -2.4096  -2.4095  -2.4053  -2.3925  -2.3924  -2.3808  -2.3806  -2.3640
    -2.3638  -2.3368  -2.3368  -2.3265  -2.3265  -2.3167  -2.3166  -2.2994
    -2.2864  -2.2657  -2.1969  -2.1953  -2.1760  -2.1760  -2.1641  -2.1640
    -2.1140  -2.1138  -2.0987  -2.0792  -2.0666  -2.0666  -2.0484  -2.0300
    -2.0300  -2.0168  -2.0100  -1.9788  -1.9786  -1.9762  -1.9682  -1.9682
    -1.9615  -1.9614  -1.9422  -1.9332  -1.9239  -1.9239  -1.9234  -1.9233
    -1.9222  -1.9220  -1.9082  -1.8882  -1.8881  -1.8847  -1.8793  -1.8665
    -1.8664  -1.8620  -1.8619  -1.8561  -1.8542  -1.8199  -1.8197  -1.7752
    -1.7560  -1.7559  -1.7101  -1.7101  -1.7099  -1.6992  -1.6991  -1.6852
    -1.6851  -1.6776  -1.6775  -1.6671  -1.6670  -1.6466  -1.6466  -1.6097
    -1.6096  -1.5922  -1.5699  -1.5698  -1.5303  -1.5303  -1.4798  -1.4797
    -1.4588  -1.4346  -1.4323  -1.4323  -1.4270  -1.4255  -1.4060  -1.4060
    -1.4051  -1.4048  -1.4029  -1.4028  -1.4020  -1.4010  -1.3996  -1.3727
    -1.3726  -1.3397  -1.3385  -1.3385  -1.3164  -1.3164  -1.3116  -1.3115
    -1.3084  -1.2981  -1.2703  -1.2701  -1.2459  -1.2445  -1.2442  -1.2241
    -1.2128  -1.2127  -1.1834  -1.1833  -1.1766  -1.1764  -1.1379  -1.1377
    -1.1258  -1.1257  -1.1249  -1.1248  -1.1027  -1.0985  -1.0985  -1.0843
    -1.0770  -1.0770  -1.0650  -1.0649  -1.0632  -1.0630  -1.0520  -1.0420
    -1.0410  -1.0343  -1.0343  -1.0274  -1.0234  -1.0232  -1.0071  -0.9652
    -0.9637  -0.9630  -0.9613  -0.9585  -0.9566  -0.9282  -0.9282  -0.9144
    -0.8967  -0.8966  -0.8883  -0.8882  -0.8800  -0.8733  -0.8710  -0.8350
    -0.8349  -0.8236  -0.8236  -0.8033  -0.8032  -0.7877  -0.7636  -0.7555
    -0.7378  -0.7377  -0.7000  -0.6999  -0.6967  -0.6965  -0.6963  -0.6903
    -0.6889  -0.6889  -0.6846  -0.6822  -0.6491  -0.6490  -0.6478  -0.6473
    -0.6463  -0.6458  -0.6321  -0.6320  -0.6037  -0.3426  -0.3342  -0.2894
    -0.2890  -0.2582  -0.1995  -0.0469  -0.0469  -0.0161   0.2686   0.2686
     0.6093   0.6098   0.6531   0.6531   0.7031   0.7033   0.8627   0.8629
     0.9908   0.9925   1.1061   1.6016   1.6430   1.6485   1.6845   1.6850
     1.8218   1.8232   1.8783   1.8785   2.0609   2.0610   2.3459   2.3728
     2.3733   2.3939   2.8284   2.8297   2.8520   2.8530   2.8689   2.8690
     2.9345   2.9353   3.0911   3.2128   3.2135   3.4009   3.4053   3.5096
     3.5816   3.5817   3.8812   3.8817   3.9381   3.9398   3.9399   4.0868
     4.0871   4.0988   4.1103   4.3833   4.3833   4.4200   4.4206   4.5348
     4.5386   4.6007   4.6026   4.8701   5.1183   5.4835   5.4849   5.5644
     5.5697   5.6910   5.6914   5.7627   5.7632   5.7802   5.7803   5.8368
     5.8916   5.8967   6.0934   6.1457   6.1795   6.1802   6.1896   6.1931
     6.1954   6.2071   6.3108   6.3627   6.3655   6.4182   6.4860   6.4998

          k =-0.2500-0.2500 0.0833 (167653 PWs)   bands (ev):

   -19.1325  -6.9455  -6.8516  -6.3213  -6.3212  -5.8831  -5.4796  -5.3809
    -5.3808  -5.1591  -5.1591  -5.0621  -5.0620  -4.9286  -4.9210  -4.8115
    -4.7231  -4.7189  -4.6978  -4.6978  -4.5167  -4.5155  -4.5154  -4.4889
    -4.4846  -4.4841  -4.4802  -4.4269  -4.4268  -4.4242  -4.4241  -4.3605
    -4.3320  -4.3320  -4.2752  -4.2720  -4.2707  -4.2346  -4.2345  -4.2207
    -4.2161  -4.1974  -4.1974  -4.1603  -4.1278  -4.1276  -4.1248  -4.1219
    -4.1218  -4.0916  -4.0612  -4.0611  -4.0316  -4.0316  -4.0276  -4.0276
    -4.0256  -4.0193  -3.9872  -3.9870  -3.9270  -3.9268  -3.8946  -3.8685
    -3.8612  -3.8579  -3.8575  -3.8354  -3.8353  -3.8235  -3.7732  -3.7731
    -3.7672  -3.7672  -3.6817  -3.6816  -3.6595  -3.6594  -3.6249  -3.6226
    -3.6088  -3.5836  -3.5836  -3.5392  -3.5392  -3.5367  -3.5366  -3.5119
    -3.5118  -3.4315  -3.4312  -3.4300  -3.4151  -3.4002  -3.3972  -3.3845
    -3.3844  -3.3771  -3.3771  -3.3343  -3.3343  -3.3114  -3.3114  -3.2748
    -3.2747  -3.2484  -3.2273  -3.2273  -3.1811  -3.1811  -3.1485  -3.1424
    -3.1209  -3.1206  -3.1198  -3.1194  -3.1154  -3.1154  -3.0884  -3.0784
    -3.0400  -3.0400  -3.0189  -2.9954  -2.9924  -2.9922  -2.9856  -2.9856
    -2.9813  -2.9813  -2.9462  -2.9452  -2.9452  -2.9397  -2.9396  -2.9347
    -2.8792  -2.8740  -2.8696  -2.8695  -2.8474  -2.8473  -2.8421  -2.7534
    -2.7428  -2.7427  -2.7331  -2.7330  -2.7273  -2.7260  -2.7250  -2.7171
    -2.7171  -2.7064  -2.6991  -2.6958  -2.6957  -2.6912  -2.6812  -2.6760
    -2.6739  -2.6517  -2.6410  -2.6409  -2.6251  -2.6251  -2.6081  -2.6081
    -2.5992  -2.5992  -2.5786  -2.5658  -2.5658  -2.5605  -2.5604  -2.5265
    -2.5242  -2.5241  -2.4662  -2.4625  -2.4477  -2.4477  -2.4371  -2.4328
    -2.4096  -2.4095  -2.4053  -2.3925  -2.3924  -2.3808  -2.3807  -2.3640
    -2.3638  -2.3368  -2.3368  -2.3265  -2.3265  -2.3167  -2.3166  -2.2994
    -2.2864  -2.2657  -2.1969  -2.1953  -2.1760  -2.1760  -2.1641  -2.1640
    -2.1140  -2.1138  -2.0987  -2.0792  -2.0666  -2.0666  -2.0484  -2.0300
    -2.0300  -2.0168  -2.0100  -1.9788  -1.9786  -1.9762  -1.9682  -1.9682
    -1.9615  -1.9614  -1.9422  -1.9332  -1.9239  -1.9239  -1.9234  -1.9233
    -1.9222  -1.9220  -1.9082  -1.8882  -1.8881  -1.8847  -1.8793  -1.8665
    -1.8664  -1.8620  -1.8619  -1.8561  -1.8542  -1.8199  -1.8197  -1.7752
    -1.7560  -1.7559  -1.7101  -1.7101  -1.7099  -1.6992  -1.6991  -1.6853
    -1.6851  -1.6776  -1.6775  -1.6671  -1.6670  -1.6466  -1.6466  -1.6097
    -1.6096  -1.5922  -1.5699  -1.5698  -1.5303  -1.5303  -1.4798  -1.4797
    -1.4588  -1.4346  -1.4323  -1.4323  -1.4270  -1.4255  -1.4060  -1.4060
    -1.4051  -1.4048  -1.4029  -1.4028  -1.4020  -1.4010  -1.3996  -1.3727
    -1.3726  -1.3397  -1.3385  -1.3385  -1.3164  -1.3164  -1.3116  -1.3115
    -1.3084  -1.2981  -1.2703  -1.2701  -1.2459  -1.2445  -1.2442  -1.2241
    -1.2128  -1.2127  -1.1834  -1.1833  -1.1766  -1.1764  -1.1379  -1.1377
    -1.1258  -1.1257  -1.1249  -1.1248  -1.1027  -1.0986  -1.0985  -1.0843
    -1.0770  -1.0770  -1.0650  -1.0649  -1.0632  -1.0630  -1.0520  -1.0420
    -1.0410  -1.0344  -1.0343  -1.0274  -1.0234  -1.0232  -1.0070  -0.9652
    -0.9637  -0.9630  -0.9613  -0.9584  -0.9566  -0.9282  -0.9282  -0.9144
    -0.8967  -0.8966  -0.8883  -0.8882  -0.8800  -0.8733  -0.8710  -0.8350
    -0.8349  -0.8236  -0.8236  -0.8033  -0.8032  -0.7877  -0.7636  -0.7555
    -0.7378  -0.7377  -0.7000  -0.6999  -0.6967  -0.6965  -0.6963  -0.6903
    -0.6889  -0.6889  -0.6846  -0.6822  -0.6491  -0.6490  -0.6478  -0.6474
    -0.6463  -0.6458  -0.6321  -0.6320  -0.6037  -0.3426  -0.3342  -0.2894
    -0.2890  -0.2582  -0.1995  -0.0469  -0.0469  -0.0162   0.2686   0.2686
     0.6093   0.6098   0.6531   0.6531   0.7031   0.7033   0.8627   0.8629
     0.9908   0.9924   1.1061   1.6016   1.6430   1.6485   1.6845   1.6850
     1.8218   1.8232   1.8783   1.8785   2.0609   2.0610   2.3459   2.3728
     2.3733   2.3939   2.8284   2.8297   2.8520   2.8530   2.8689   2.8690
     2.9346   2.9353   3.0911   3.2128   3.2135   3.4009   3.4053   3.5096
     3.5816   3.5817   3.8812   3.8817   3.9381   3.9398   3.9399   4.0868
     4.0871   4.0987   4.1103   4.3833   4.3833   4.4200   4.4206   4.5348
     4.5386   4.6007   4.6026   4.8700   5.1215   5.4835   5.4849   5.5644
     5.5707   5.6911   5.6914   5.7629   5.7632   5.7802   5.7803   5.8478
     5.8908   5.8933   6.0505   6.1574   6.1795   6.1802   6.1907   6.1931
     6.1954   6.2072   6.2994   6.3454   6.3659   6.3842   6.4579   6.5026

          k =-0.2500 0.2500-0.0833 (167653 PWs)   bands (ev):

   -19.1325  -6.9455  -6.8516  -6.3215  -6.3210  -5.8831  -5.4796  -5.3811
    -5.3807  -5.1591  -5.1591  -5.0624  -5.0617  -4.9286  -4.9210  -4.8115
    -4.7231  -4.7189  -4.6979  -4.6977  -4.5167  -4.5156  -4.5153  -4.4889
    -4.4846  -4.4841  -4.4802  -4.4271  -4.4266  -4.4243  -4.4240  -4.3605
    -4.3320  -4.3319  -4.2752  -4.2720  -4.2707  -4.2348  -4.2343  -4.2207
    -4.2161  -4.1974  -4.1974  -4.1603  -4.1279  -4.1275  -4.1248  -4.1220
    -4.1217  -4.0916  -4.0614  -4.0610  -4.0318  -4.0314  -4.0276  -4.0275
    -4.0256  -4.0193  -3.9875  -3.9868  -3.9271  -3.9267  -3.8947  -3.8685
    -3.8612  -3.8579  -3.8575  -3.8354  -3.8353  -3.8235  -3.7732  -3.7731
    -3.7674  -3.7670  -3.6819  -3.6814  -3.6597  -3.6592  -3.6249  -3.6226
    -3.6088  -3.5836  -3.5836  -3.5394  -3.5390  -3.5368  -3.5365  -3.5121
    -3.5116  -3.4315  -3.4311  -3.4300  -3.4151  -3.4002  -3.3972  -3.3845
    -3.3843  -3.3772  -3.3770  -3.3344  -3.3343  -3.3115  -3.3113  -3.2749
    -3.2746  -3.2484  -3.2274  -3.2272  -3.1812  -3.1809  -3.1485  -3.1424
    -3.1209  -3.1207  -3.1197  -3.1195  -3.1155  -3.1153  -3.0884  -3.0784
    -3.0400  -3.0400  -3.0189  -2.9953  -2.9925  -2.9922  -2.9859  -2.9853
    -2.9813  -2.9813  -2.9462  -2.9452  -2.9451  -2.9397  -2.9396  -2.9347
    -2.8792  -2.8740  -2.8698  -2.8693  -2.8474  -2.8473  -2.8421  -2.7534
    -2.7429  -2.7426  -2.7333  -2.7328  -2.7272  -2.7262  -2.7249  -2.7172
    -2.7170  -2.7064  -2.6991  -2.6959  -2.6955  -2.6912  -2.6811  -2.6760
    -2.6739  -2.6517  -2.6412  -2.6407  -2.6252  -2.6250  -2.6081  -2.6080
    -2.5993  -2.5990  -2.5786  -2.5658  -2.5658  -2.5605  -2.5603  -2.5265
    -2.5242  -2.5241  -2.4661  -2.4626  -2.4478  -2.4476  -2.4371  -2.4328
    -2.4097  -2.4094  -2.4053  -2.3927  -2.3923  -2.3811  -2.3804  -2.3642
    -2.3635  -2.3368  -2.3368  -2.3267  -2.3264  -2.3168  -2.3165  -2.2994
    -2.2864  -2.2657  -2.1969  -2.1953  -2.1762  -2.1759  -2.1641  -2.1640
    -2.1143  -2.1135  -2.0987  -2.0792  -2.0666  -2.0665  -2.0484  -2.0301
    -2.0299  -2.0168  -2.0100  -1.9793  -1.9783  -1.9761  -1.9682  -1.9681
    -1.9616  -1.9613  -1.9422  -1.9332  -1.9241  -1.9237  -1.9235  -1.9233
    -1.9225  -1.9216  -1.9082  -1.8882  -1.8881  -1.8847  -1.8793  -1.8666
    -1.8662  -1.8621  -1.8618  -1.8561  -1.8542  -1.8201  -1.8195  -1.7752
    -1.7563  -1.7556  -1.7102  -1.7100  -1.7099  -1.6994  -1.6989  -1.6855
    -1.6849  -1.6778  -1.6773  -1.6672  -1.6668  -1.6467  -1.6466  -1.6098
    -1.6094  -1.5922  -1.5700  -1.5697  -1.5305  -1.5301  -1.4798  -1.4797
    -1.4588  -1.4346  -1.4325  -1.4321  -1.4270  -1.4255  -1.4063  -1.4057
    -1.4052  -1.4047  -1.4030  -1.4027  -1.4020  -1.4009  -1.3996  -1.3727
    -1.3726  -1.3397  -1.3385  -1.3385  -1.3165  -1.3163  -1.3118  -1.3114
    -1.3084  -1.2981  -1.2704  -1.2700  -1.2459  -1.2447  -1.2439  -1.2241
    -1.2130  -1.2125  -1.1835  -1.1832  -1.1766  -1.1764  -1.1381  -1.1375
    -1.1259  -1.1256  -1.1250  -1.1247  -1.1028  -1.0987  -1.0983  -1.0843
    -1.0772  -1.0768  -1.0653  -1.0646  -1.0633  -1.0628  -1.0520  -1.0420
    -1.0410  -1.0344  -1.0343  -1.0274  -1.0235  -1.0231  -1.0070  -0.9652
    -0.9637  -0.9629  -0.9613  -0.9585  -0.9566  -0.9282  -0.9281  -0.9144
    -0.8971  -0.8962  -0.8883  -0.8882  -0.8800  -0.8733  -0.8710  -0.8352
    -0.8347  -0.8236  -0.8236  -0.8033  -0.8032  -0.7877  -0.7636  -0.7555
    -0.7379  -0.7375  -0.7001  -0.6998  -0.6967  -0.6965  -0.6963  -0.6903
    -0.6890  -0.6887  -0.6846  -0.6822  -0.6492  -0.6489  -0.6479  -0.6473
    -0.6464  -0.6456  -0.6323  -0.6319  -0.6037  -0.3426  -0.3342  -0.2902
    -0.2882  -0.2582  -0.1995  -0.0471  -0.0467  -0.0161   0.2684   0.2688
     0.6085   0.6106   0.6530   0.6532   0.7027   0.7037   0.8622   0.8634
     0.9908   0.9925   1.1061   1.6016   1.6430   1.6485   1.6845   1.6850
     1.8199   1.8250   1.8778   1.8789   2.0607   2.0612   2.3459   2.3719
     2.3742   2.3939   2.8268   2.8312   2.8520   2.8530   2.8686   2.8692
     2.9345   2.9353   3.0910   3.2118   3.2146   3.4009   3.4052   3.5096
     3.5812   3.5821   3.8805   3.8824   3.9379   3.9398   3.9403   4.0863
     4.0876   4.0956   4.1133   4.3833   4.3833   4.4199   4.4207   4.5348
     4.5386   4.5992   4.6043   4.8713   5.1198   5.4840   5.4849   5.5621
     5.5716   5.6905   5.6920   5.7628   5.7634   5.7799   5.7806   5.8589
     5.8894   5.8925   6.0227   6.1690   6.1786   6.1811   6.1898   6.1931
     6.1956   6.2074   6.3044   6.3488   6.3667   6.3805   6.4708   6.5039

          k = 0.2500-0.2500-0.0833 (167653 PWs)   bands (ev):

   -19.1325  -6.9455  -6.8516  -6.3215  -6.3210  -5.8831  -5.4796  -5.3811
    -5.3807  -5.1591  -5.1591  -5.0624  -5.0617  -4.9286  -4.9210  -4.8115
    -4.7231  -4.7189  -4.6979  -4.6977  -4.5167  -4.5156  -4.5153  -4.4889
    -4.4846  -4.4841  -4.4802  -4.4271  -4.4266  -4.4243  -4.4240  -4.3605
    -4.3320  -4.3319  -4.2752  -4.2720  -4.2707  -4.2348  -4.2343  -4.2207
    -4.2161  -4.1974  -4.1974  -4.1603  -4.1279  -4.1275  -4.1248  -4.1220
    -4.1217  -4.0916  -4.0614  -4.0610  -4.0318  -4.0314  -4.0276  -4.0275
    -4.0256  -4.0193  -3.9875  -3.9868  -3.9271  -3.9267  -3.8947  -3.8685
    -3.8612  -3.8579  -3.8575  -3.8354  -3.8353  -3.8235  -3.7732  -3.7731
    -3.7674  -3.7670  -3.6819  -3.6814  -3.6597  -3.6592  -3.6249  -3.6226
    -3.6088  -3.5836  -3.5836  -3.5394  -3.5390  -3.5368  -3.5365  -3.5121
    -3.5116  -3.4315  -3.4311  -3.4300  -3.4151  -3.4002  -3.3972  -3.3845
    -3.3843  -3.3772  -3.3770  -3.3344  -3.3343  -3.3115  -3.3113  -3.2749
    -3.2746  -3.2484  -3.2274  -3.2272  -3.1812  -3.1809  -3.1485  -3.1424
    -3.1209  -3.1207  -3.1197  -3.1195  -3.1155  -3.1153  -3.0884  -3.0784
    -3.0400  -3.0400  -3.0189  -2.9953  -2.9925  -2.9922  -2.9859  -2.9853
    -2.9813  -2.9813  -2.9462  -2.9452  -2.9451  -2.9397  -2.9396  -2.9347
    -2.8792  -2.8740  -2.8698  -2.8693  -2.8474  -2.8473  -2.8421  -2.7534
    -2.7429  -2.7426  -2.7333  -2.7328  -2.7272  -2.7262  -2.7249  -2.7172
    -2.7170  -2.7064  -2.6991  -2.6959  -2.6955  -2.6912  -2.6811  -2.6760
    -2.6739  -2.6517  -2.6412  -2.6407  -2.6252  -2.6250  -2.6081  -2.6080
    -2.5993  -2.5990  -2.5786  -2.5658  -2.5658  -2.5605  -2.5603  -2.5265
    -2.5242  -2.5241  -2.4661  -2.4626  -2.4478  -2.4476  -2.4371  -2.4328
    -2.4097  -2.4094  -2.4053  -2.3927  -2.3923  -2.3811  -2.3804  -2.3642
    -2.3635  -2.3368  -2.3368  -2.3267  -2.3264  -2.3168  -2.3165  -2.2994
    -2.2864  -2.2657  -2.1969  -2.1953  -2.1762  -2.1759  -2.1641  -2.1640
    -2.1143  -2.1135  -2.0987  -2.0792  -2.0666  -2.0665  -2.0484  -2.0301
    -2.0299  -2.0168  -2.0100  -1.9793  -1.9783  -1.9761  -1.9682  -1.9681
    -1.9616  -1.9613  -1.9422  -1.9332  -1.9241  -1.9237  -1.9235  -1.9233
    -1.9225  -1.9216  -1.9082  -1.8882  -1.8881  -1.8847  -1.8793  -1.8666
    -1.8662  -1.8621  -1.8618  -1.8561  -1.8542  -1.8201  -1.8195  -1.7752
    -1.7563  -1.7556  -1.7102  -1.7100  -1.7099  -1.6994  -1.6989  -1.6855
    -1.6849  -1.6778  -1.6773  -1.6672  -1.6668  -1.6467  -1.6466  -1.6098
    -1.6094  -1.5922  -1.5700  -1.5697  -1.5305  -1.5301  -1.4798  -1.4797
    -1.4588  -1.4346  -1.4325  -1.4321  -1.4270  -1.4255  -1.4063  -1.4057
    -1.4052  -1.4047  -1.4030  -1.4027  -1.4020  -1.4009  -1.3996  -1.3727
    -1.3726  -1.3397  -1.3385  -1.3385  -1.3165  -1.3163  -1.3118  -1.3114
    -1.3084  -1.2981  -1.2704  -1.2700  -1.2459  -1.2447  -1.2439  -1.2241
    -1.2130  -1.2125  -1.1835  -1.1832  -1.1766  -1.1764  -1.1381  -1.1375
    -1.1259  -1.1256  -1.1250  -1.1247  -1.1028  -1.0987  -1.0983  -1.0843
    -1.0772  -1.0768  -1.0653  -1.0646  -1.0633  -1.0628  -1.0520  -1.0420
    -1.0410  -1.0344  -1.0343  -1.0274  -1.0235  -1.0231  -1.0070  -0.9652
    -0.9637  -0.9629  -0.9613  -0.9585  -0.9566  -0.9282  -0.9281  -0.9144
    -0.8971  -0.8962  -0.8883  -0.8882  -0.8800  -0.8733  -0.8710  -0.8352
    -0.8347  -0.8236  -0.8236  -0.8033  -0.8032  -0.7877  -0.7636  -0.7555
    -0.7379  -0.7375  -0.7001  -0.6998  -0.6967  -0.6965  -0.6963  -0.6903
    -0.6890  -0.6887  -0.6846  -0.6822  -0.6492  -0.6489  -0.6479  -0.6473
    -0.6464  -0.6456  -0.6323  -0.6319  -0.6037  -0.3426  -0.3342  -0.2902
    -0.2882  -0.2582  -0.1995  -0.0471  -0.0467  -0.0161   0.2684   0.2688
     0.6085   0.6106   0.6530   0.6532   0.7027   0.7037   0.8622   0.8634
     0.9908   0.9925   1.1061   1.6016   1.6430   1.6485   1.6845   1.6850
     1.8199   1.8250   1.8778   1.8789   2.0607   2.0612   2.3459   2.3719
     2.3742   2.3939   2.8268   2.8312   2.8520   2.8530   2.8686   2.8692
     2.9345   2.9353   3.0910   3.2118   3.2146   3.4009   3.4052   3.5096
     3.5812   3.5821   3.8805   3.8824   3.9379   3.9398   3.9403   4.0863
     4.0876   4.0956   4.1133   4.3833   4.3833   4.4199   4.4207   4.5348
     4.5386   4.5992   4.6043   4.8713   5.1198   5.4840   5.4849   5.5622
     5.5716   5.6905   5.6920   5.7627   5.7634   5.7799   5.7806   5.8496
     5.8889   5.8925   6.0498   6.1594   6.1786   6.1811   6.1898   6.1931
     6.1956   6.2074   6.2972   6.3467   6.3674   6.3811   6.4618   6.5062

          k =-0.2500 0.2500 0.2500 (167588 PWs)   bands (ev):

   -19.1325  -6.9455  -6.8516  -6.3215  -6.3210  -5.8831  -5.4796  -5.3811
    -5.3807  -5.1591  -5.1591  -5.0624  -5.0617  -4.9286  -4.9210  -4.8115
    -4.7231  -4.7189  -4.6979  -4.6977  -4.5167  -4.5156  -4.5153  -4.4889
    -4.4846  -4.4841  -4.4802  -4.4271  -4.4266  -4.4243  -4.4240  -4.3605
    -4.3320  -4.3319  -4.2752  -4.2720  -4.2707  -4.2348  -4.2343  -4.2207
    -4.2161  -4.1974  -4.1974  -4.1603  -4.1279  -4.1275  -4.1248  -4.1220
    -4.1217  -4.0916  -4.0614  -4.0610  -4.0318  -4.0314  -4.0276  -4.0275
    -4.0256  -4.0193  -3.9874  -3.9868  -3.9271  -3.9267  -3.8947  -3.8685
    -3.8612  -3.8579  -3.8575  -3.8354  -3.8353  -3.8235  -3.7732  -3.7731
    -3.7674  -3.7670  -3.6819  -3.6814  -3.6597  -3.6592  -3.6249  -3.6226
    -3.6088  -3.5836  -3.5836  -3.5394  -3.5390  -3.5368  -3.5365  -3.5121
    -3.5116  -3.4316  -3.4311  -3.4300  -3.4151  -3.4002  -3.3972  -3.3845
    -3.3843  -3.3772  -3.3770  -3.3344  -3.3343  -3.3115  -3.3112  -3.2749
    -3.2746  -3.2484  -3.2274  -3.2272  -3.1812  -3.1809  -3.1485  -3.1424
    -3.1209  -3.1207  -3.1197  -3.1195  -3.1155  -3.1153  -3.0884  -3.0784
    -3.0400  -3.0400  -3.0189  -2.9953  -2.9925  -2.9921  -2.9859  -2.9853
    -2.9813  -2.9813  -2.9462  -2.9451  -2.9451  -2.9397  -2.9396  -2.9347
    -2.8792  -2.8740  -2.8698  -2.8693  -2.8474  -2.8473  -2.8421  -2.7534
    -2.7429  -2.7426  -2.7333  -2.7328  -2.7272  -2.7262  -2.7249  -2.7172
    -2.7170  -2.7064  -2.6991  -2.6959  -2.6955  -2.6912  -2.6811  -2.6760
    -2.6739  -2.6517  -2.6412  -2.6407  -2.6252  -2.6250  -2.6081  -2.6080
    -2.5993  -2.5990  -2.5786  -2.5658  -2.5658  -2.5605  -2.5603  -2.5266
    -2.5242  -2.5241  -2.4662  -2.4626  -2.4478  -2.4476  -2.4371  -2.4328
    -2.4097  -2.4094  -2.4053  -2.3926  -2.3923  -2.3811  -2.3804  -2.3642
    -2.3635  -2.3368  -2.3368  -2.3267  -2.3264  -2.3168  -2.3165  -2.2994
    -2.2864  -2.2658  -2.1969  -2.1953  -2.1762  -2.1759  -2.1642  -2.1640
    -2.1143  -2.1135  -2.0987  -2.0792  -2.0666  -2.0665  -2.0484  -2.0301
    -2.0299  -2.0168  -2.0100  -1.9793  -1.9783  -1.9761  -1.9682  -1.9681
    -1.9616  -1.9613  -1.9422  -1.9332  -1.9241  -1.9237  -1.9235  -1.9233
    -1.9225  -1.9216  -1.9082  -1.8882  -1.8881  -1.8847  -1.8793  -1.8666
    -1.8662  -1.8621  -1.8618  -1.8561  -1.8542  -1.8201  -1.8195  -1.7752
    -1.7563  -1.7556  -1.7102  -1.7100  -1.7099  -1.6994  -1.6989  -1.6855
    -1.6849  -1.6778  -1.6773  -1.6672  -1.6668  -1.6467  -1.6466  -1.6098
    -1.6094  -1.5922  -1.5700  -1.5697  -1.5305  -1.5301  -1.4798  -1.4797
    -1.4588  -1.4346  -1.4325  -1.4321  -1.4270  -1.4255  -1.4063  -1.4057
    -1.4052  -1.4047  -1.4030  -1.4027  -1.4020  -1.4009  -1.3996  -1.3727
    -1.3726  -1.3397  -1.3385  -1.3385  -1.3165  -1.3163  -1.3118  -1.3114
    -1.3084  -1.2981  -1.2704  -1.2700  -1.2459  -1.2447  -1.2439  -1.2241
    -1.2130  -1.2125  -1.1836  -1.1832  -1.1766  -1.1764  -1.1381  -1.1375
    -1.1259  -1.1256  -1.1250  -1.1247  -1.1028  -1.0987  -1.0983  -1.0843
    -1.0772  -1.0768  -1.0653  -1.0646  -1.0633  -1.0628  -1.0520  -1.0420
    -1.0410  -1.0344  -1.0342  -1.0274  -1.0235  -1.0231  -1.0071  -0.9652
    -0.9637  -0.9630  -0.9613  -0.9585  -0.9566  -0.9282  -0.9281  -0.9144
    -0.8971  -0.8962  -0.8883  -0.8882  -0.8800  -0.8733  -0.8710  -0.8352
    -0.8347  -0.8236  -0.8236  -0.8033  -0.8032  -0.7877  -0.7636  -0.7555
    -0.7379  -0.7375  -0.7001  -0.6998  -0.6967  -0.6965  -0.6963  -0.6903
    -0.6890  -0.6887  -0.6846  -0.6822  -0.6492  -0.6489  -0.6479  -0.6473
    -0.6464  -0.6456  -0.6323  -0.6319  -0.6037  -0.3426  -0.3342  -0.2902
    -0.2882  -0.2582  -0.1995  -0.0471  -0.0467  -0.0161   0.2684   0.2688
     0.6085   0.6106   0.6530   0.6532   0.7027   0.7037   0.8622   0.8634
     0.9908   0.9925   1.1061   1.6016   1.6431   1.6485   1.6845   1.6850
     1.8199   1.8251   1.8778   1.8789   2.0607   2.0612   2.3459   2.3719
     2.3742   2.3939   2.8268   2.8312   2.8520   2.8530   2.8686   2.8692
     2.9345   2.9353   3.0910   3.2118   3.2147   3.4009   3.4052   3.5096
     3.5812   3.5821   3.8805   3.8824   3.9379   3.9398   3.9403   4.0863
     4.0876   4.0956   4.1134   4.3833   4.3833   4.4199   4.4207   4.5348
     4.5386   4.5992   4.6043   4.8714   5.1165   5.4839   5.4849   5.5618
     5.5714   5.6905   5.6920   5.7625   5.7634   5.7799   5.7806   5.8368
     5.8920   5.8954   6.0938   6.1463   6.1785   6.1810   6.1892   6.1931
     6.1955   6.2072   6.3040   6.3622   6.3747   6.4215   6.4817   6.5044

     the Fermi energy is     0.9346 ev

!    total energy              =   -7379.97878742 Ry
     Harris-Foulkes estimate   =   -7379.97878742 Ry
     estimated scf accuracy    <          6.1E-09 Ry

     The total energy is the sum of the following terms:

     one-electron contribution =  -48264.26118143 Ry
     hartree contribution      =   24681.23894716 Ry
     xc contribution           =   -3556.23762713 Ry
     ewald contribution        =   19759.28004688 Ry
     smearing contrib. (-TS)   =       0.00102710 Ry

     convergence has been achieved in  27 iterations

     Writing output data file 7010990.save

     init_run     :     92.16s CPU     98.47s WALL (       1 calls)
     electrons    :   6752.42s CPU   7121.60s WALL (       1 calls)

     Called by init_run:
     wfcinit      :     73.48s CPU     79.47s WALL (       1 calls)
     potinit      :      2.96s CPU      3.02s WALL (       1 calls)

     Called by electrons:
     c_bands      :   5715.84s CPU   6020.65s WALL (      28 calls)
     sum_band     :    759.55s CPU    818.46s WALL (      28 calls)
     v_of_rho     :     12.66s CPU     14.00s WALL (      28 calls)
     newd         :    267.74s CPU    271.21s WALL (      28 calls)
     mix_rho      :      2.19s CPU      2.52s WALL (      28 calls)

     Called by c_bands:
     init_us_2    :      8.88s CPU      9.08s WALL (     342 calls)
     cegterg      :   5624.45s CPU   5928.36s WALL (     168 calls)

     Called by *egterg:
     h_psi        :   2161.98s CPU   2403.71s WALL (     993 calls)
     s_psi        :    363.16s CPU    365.61s WALL (     993 calls)
     g_psi        :      4.57s CPU      4.58s WALL (     819 calls)
     cdiaghg      :   1873.72s CPU   1879.86s WALL (     981 calls)

     Called by h_psi:
     add_vuspsi   :    362.14s CPU    365.18s WALL (     993 calls)

     General routines
     calbec       :    547.09s CPU    549.14s WALL (    1161 calls)
     fft          :     52.57s CPU     54.83s WALL (     448 calls)
     ffts         :      1.07s CPU      1.24s WALL (      56 calls)
     fftw         :   1592.87s CPU   1861.43s WALL (  456396 calls)
     interpolate  :      2.73s CPU      3.28s WALL (      56 calls)
     davcio       :      0.01s CPU      0.10s WALL (       6 calls)

     Parallel routines
     fft_scatter  :   1095.87s CPU   1297.96s WALL (  456900 calls)

     PWSCF        :     1h54m CPU        2h 0m WALL


   This run was terminated on:  22:27:59   9Aug2015            

=------------------------------------------------------------------------------=
   JOB DONE.
=------------------------------------------------------------------------------=
