
     Program PWSCF v.5.1.2 starts on 11Aug2015 at 15:34:32 

     This program is part of the open-source Quantum ESPRESSO suite
     for quantum simulation of materials; please cite
         "P. Giannozzi et al., J. Phys.:Condens. Matter 21 395502 (2009);
          URL http://www.quantum-espresso.org", 
     in publications or presentations arising from this work. More details at
     http://www.quantum-espresso.org/quote

     Parallel version (MPI), running on    32 processors
     R & G space division:  proc/nbgrp/npool/nimage =      32
     Reading input from hollow.O1.Au5859.d.2.7.phi.0.psi.90.in
Warning: card &IONS ignored
Warning: card / ignored
Warning: card &CELL ignored
Warning: card / ignored

     Current dimensions of program PWSCF are:
     Max number of different atomic species (ntypx) = 10
     Max number of k-points (npk) =  40000
     Max angular momentum in pseudopotentials (lmaxx) =  3

     Subspace diagonalization in iterative solution of the eigenvalue problem:
     a serial algorithm will be used


     Parallelization info
     --------------------
     sticks:   dense  smooth     PW     G-vecs:    dense   smooth      PW
     Min         578     289     74               118518    41891    5486
     Max         579     290     75               118533    41932    5497
     Sum       18505    9265   2385              3792731  1341081  175711


     Title: 
     hollow.O1.Au5859.d.2.7.phi.0.psi.90                                        


     bravais-lattice index     =            8
     lattice parameter (alat)  =      24.1233  a.u.
     unit-cell volume          =   28076.2361 (a.u.)^3
     number of atoms/cell      =           75
     number of atomic types    =            3
     number of electrons       =       800.00
     number of Kohn-Sham states=          480
     kinetic-energy cutoff     =      50.0000  Ry
     charge density cutoff     =     400.0000  Ry
     convergence threshold     =      1.0E-08
     mixing beta               =       0.7000
     number of iterations used =            8  plain     mixing
     Exchange-correlation      =  SLA  PW   PBE  PBE ( 1  4  3  4 0 0)

     celldm(1)=  24.123277  celldm(2)=   1.000000  celldm(3)=   2.000000
     celldm(4)=   0.000000  celldm(5)=   0.000000  celldm(6)=   0.000000

     crystal axes: (cart. coord. in units of alat)
               a(1) = (   1.000000   0.000000   0.000000 )  
               a(2) = (   0.000000   1.000000   0.000000 )  
               a(3) = (   0.000000   0.000000   2.000000 )  

     reciprocal axes: (cart. coord. in units 2 pi/alat)
               b(1) = (  1.000000  0.000000  0.000000 )  
               b(2) = (  0.000000  1.000000  0.000000 )  
               b(3) = (  0.000000  0.000000  0.500000 )  


     PseudoPot. # 1 for Au read from file:
     /home/scc/andrejb/qe/pseudo/Au.pbe-nd-van.UPF
     MD5 check sum: 458681b50f36d87ef23c61b04bba420a
     Pseudo is Ultrasoft + core correction, Zval = 11.0
     Generated by new atomic code, or converted to UPF format
     Using radial grid of  985 points,  3 beta functions with: 
                l(1) =   1
                l(2) =   2
                l(3) =   2
     Q(r) pseudized with  8 coefficients,  rinner =    1.100   1.100   1.100
                                                       1.100   1.100

     PseudoPot. # 2 for H  read from file:
     /home/scc/andrejb/qe/pseudo/H.pbe-van_ak.UPF
     MD5 check sum: 403db7282739603aa925980fa9b8608d
     Pseudo is Ultrasoft, Zval =  1.0
     Generated by new atomic code, or converted to UPF format
     Using radial grid of  615 points,  1 beta functions with: 
                l(1) =   0
     Q(r) pseudized with  8 coefficients,  rinner =    0.800

     PseudoPot. # 3 for O  read from file:
     /home/scc/andrejb/qe/pseudo/O.pbe-van_ak.UPF
     MD5 check sum: 4b8c549914a63cae506c6ff22b5af4fe
     Pseudo is Ultrasoft, Zval =  6.0
     Generated by new atomic code, or converted to UPF format
     Using radial grid of  737 points,  4 beta functions with: 
                l(1) =   0
                l(2) =   0
                l(3) =   1
                l(4) =   1
     Q(r) pseudized with  8 coefficients,  rinner =    0.800   0.800   0.800


     atomic species   valence    mass     pseudopotential
        Au            11.00   196.96657     Au( 1.00)
        H              1.00     1.01000     H ( 1.00)
        O              6.00    16.00000     O ( 1.00)

     No symmetry found



   Cartesian axes

     site n.     atom                  positions (alat units)
         1           O   tau(   1) = (   0.1666051   0.1666105   0.9066623  )
         2           H   tau(   2) = (   0.1195275   0.1211166   0.8674908  )
         3           H   tau(   3) = (   0.2122554   0.1187528   0.9446640  )
         4           Au  tau(   4) = (   0.0000000   0.0000000   0.0000000  )
         5           Au  tau(   5) = (   0.3332217   0.0000000   0.0000000  )
         6           Au  tau(   6) = (   0.6664434   0.0000000   0.0000000  )
         7           Au  tau(   7) = (   0.1666109   0.1666109   0.0000000  )
         8           Au  tau(   8) = (   0.4998326   0.1666109   0.0000000  )
         9           Au  tau(   9) = (   0.8330542   0.1666109   0.0000000  )
        10           Au  tau(  10) = (   0.0000000   0.3332217   0.0000000  )
        11           Au  tau(  11) = (   0.3332217   0.3332217   0.0000000  )
        12           Au  tau(  12) = (   0.6664434   0.3332217   0.0000000  )
        13           Au  tau(  13) = (   0.1666109   0.4998326   0.0000000  )
        14           Au  tau(  14) = (   0.4998326   0.4998326   0.0000000  )
        15           Au  tau(  15) = (   0.8330542   0.4998326   0.0000000  )
        16           Au  tau(  16) = (   0.0000000   0.6664434   0.0000000  )
        17           Au  tau(  17) = (   0.3332217   0.6664434   0.0000000  )
        18           Au  tau(  18) = (   0.6664434   0.6664434   0.0000000  )
        19           Au  tau(  19) = (   0.1666109   0.8330542   0.0000000  )
        20           Au  tau(  20) = (   0.4998326   0.8330542   0.0000000  )
        21           Au  tau(  21) = (   0.8330542   0.8330542   0.0000000  )
        22           Au  tau(  22) = (   0.1666109   0.0000000   0.1666109  )
        23           Au  tau(  23) = (   0.4998326   0.0000000   0.1666109  )
        24           Au  tau(  24) = (   0.8330542   0.0000000   0.1666109  )
        25           Au  tau(  25) = (   0.0000000   0.1666109   0.1666109  )
        26           Au  tau(  26) = (   0.3332217   0.1666109   0.1666109  )
        27           Au  tau(  27) = (   0.6664434   0.1666109   0.1666109  )
        28           Au  tau(  28) = (   0.1666109   0.3332217   0.1666109  )
        29           Au  tau(  29) = (   0.4998326   0.3332217   0.1666109  )
        30           Au  tau(  30) = (   0.8330542   0.3332217   0.1666109  )
        31           Au  tau(  31) = (   0.0000000   0.4998326   0.1666109  )
        32           Au  tau(  32) = (   0.3332217   0.4998326   0.1666109  )
        33           Au  tau(  33) = (   0.6664434   0.4998326   0.1666109  )
        34           Au  tau(  34) = (   0.1666109   0.6664434   0.1666109  )
        35           Au  tau(  35) = (   0.4998326   0.6664434   0.1666109  )
        36           Au  tau(  36) = (   0.8330542   0.6664434   0.1666109  )
        37           Au  tau(  37) = (   0.0000000   0.8330542   0.1666109  )
        38           Au  tau(  38) = (   0.3332217   0.8330542   0.1666109  )
        39           Au  tau(  39) = (   0.6664434   0.8330542   0.1666109  )
        40           Au  tau(  40) = (  -0.0000182  -0.0000182   0.3335478  )
        41           Au  tau(  41) = (   0.3332215  -0.0000181   0.3335473  )
        42           Au  tau(  42) = (   0.6664447  -0.0000183   0.3335481  )
        43           Au  tau(  43) = (  -0.0000181   0.3332215   0.3335473  )
        44           Au  tau(  44) = (   0.3332215   0.3332215   0.3335468  )
        45           Au  tau(  45) = (   0.6664445   0.3332215   0.3335477  )
        46           Au  tau(  46) = (  -0.0000183   0.6664447   0.3335481  )
        47           Au  tau(  47) = (   0.3332215   0.6664445   0.3335477  )
        48           Au  tau(  48) = (   0.6664446   0.6664446   0.3335486  )
        49           Au  tau(  49) = (   0.1666097   0.1666097   0.3335483  )
        50           Au  tau(  50) = (   0.4998320   0.1666098   0.3335477  )
        51           Au  tau(  51) = (   0.8330732   0.1666096   0.3335480  )
        52           Au  tau(  52) = (   0.1666098   0.4998320   0.3335477  )
        53           Au  tau(  53) = (   0.4998322   0.4998322   0.3335470  )
        54           Au  tau(  54) = (   0.8330731   0.4998322   0.3335474  )
        55           Au  tau(  55) = (   0.1666096   0.8330732   0.3335480  )
        56           Au  tau(  56) = (   0.4998322   0.8330731   0.3335474  )
        57           Au  tau(  57) = (   0.8330731   0.8330731   0.3335478  )
        58           Au  tau(  58) = (   0.1666104  -0.0000111   0.4993095  )
        59           Au  tau(  59) = (   0.4998323  -0.0000112   0.4993099  )
        60           Au  tau(  60) = (   0.8330660  -0.0000111   0.4993009  )
        61           Au  tau(  61) = (  -0.0000111   0.1666104   0.4993095  )
        62           Au  tau(  62) = (   0.3332213   0.1666106   0.4993185  )
        63           Au  tau(  63) = (   0.6664437   0.1666106   0.4993187  )
        64           Au  tau(  64) = (   0.1666106   0.3332213   0.4993185  )
        65           Au  tau(  65) = (   0.4998324   0.3332216   0.4993185  )
        66           Au  tau(  66) = (   0.8330658   0.3332215   0.4993102  )
        67           Au  tau(  67) = (  -0.0000112   0.4998323   0.4993099  )
        68           Au  tau(  68) = (   0.3332216   0.4998324   0.4993185  )
        69           Au  tau(  69) = (   0.6664437   0.4998325   0.4993187  )
        70           Au  tau(  70) = (   0.1666106   0.6664437   0.4993187  )
        71           Au  tau(  71) = (   0.4998325   0.6664437   0.4993187  )
        72           Au  tau(  72) = (   0.8330658   0.6664438   0.4993102  )
        73           Au  tau(  73) = (  -0.0000111   0.8330660   0.4993009  )
        74           Au  tau(  74) = (   0.3332215   0.8330658   0.4993102  )
        75           Au  tau(  75) = (   0.6664438   0.8330658   0.4993102  )

     number of k points=     6  Marzari-Vanderbilt smearing, width (Ry)=  0.0200
                       cart. coord. in units 2pi/alat
        k(    1) = (   0.2500000   0.2500000   0.0833333), wk =   0.3333333
        k(    2) = (   0.2500000   0.2500000  -0.2500000), wk =   0.3333333
        k(    3) = (  -0.2500000  -0.2500000   0.0833333), wk =   0.3333333
        k(    4) = (  -0.2500000   0.2500000  -0.0833333), wk =   0.3333333
        k(    5) = (   0.2500000  -0.2500000  -0.0833333), wk =   0.3333333
        k(    6) = (  -0.2500000   0.2500000   0.2500000), wk =   0.3333333

     Dense  grid:  3792731 G-vectors     FFT dimensions: ( 160, 160, 320)

     Smooth grid:  1341081 G-vectors     FFT dimensions: ( 120, 120, 225)

     Largest allocated arrays     est. size (Mb)     dimensions
        Kohn-Sham Wavefunctions        38.58 Mb     (    5267,  480)
        NL pseudopotentials            76.03 Mb     (    5267,  946)
        Each V/rho on FFT grid          3.91 Mb     (  256000)
        Each G-vector array             0.90 Mb     (  118520)
        G-vector shells                 0.08 Mb     (   10286)
     Largest temporary arrays     est. size (Mb)     dimensions
        Auxiliary wavefunctions       154.31 Mb     (    5267, 1920)
        Each subspace H/S matrix       56.25 Mb     (    1920, 1920)
        Each <psi_i|beta_j> matrix      6.93 Mb     (     946,  480)
        Arrays for rho mixing          31.25 Mb     (  256000,    8)

     Initial potential from superposition of free atoms
     Check: negative starting charge=   -1.944740

     starting charge  799.16392, renormalised to  800.00000

     negative rho (up, down):  1.947E+00 0.000E+00
     Starting wfc are  654 randomized atomic wfcs

     total cpu time spent up to now is      152.2 secs

     Self-consistent Calculation

     iteration #  1     ecut=    50.00 Ry     beta=0.70
     Davidson diagonalization with overlap
     ethr =  1.00E-02,  avg # of iterations =  3.0

     Threshold (ethr) on eigenvalues was too large:
     Diagonalizing with lowered threshold

     Davidson diagonalization with overlap
     ethr =  5.01E-04,  avg # of iterations =  2.0

     negative rho (up, down):  1.932E+00 0.000E+00

     total cpu time spent up to now is      660.4 secs

     total energy              =   -7377.39828392 Ry
     Harris-Foulkes estimate   =   -7380.96355503 Ry
     estimated scf accuracy    <       4.52588076 Ry

     iteration #  2     ecut=    50.00 Ry     beta=0.70
     Davidson diagonalization with overlap
     ethr =  5.66E-04,  avg # of iterations = 11.3

     negative rho (up, down):  1.930E+00 0.000E+00

     total cpu time spent up to now is     1425.7 secs

     total energy              =   -7368.71430523 Ry
     Harris-Foulkes estimate   =   -7387.99328969 Ry
     estimated scf accuracy    <      99.30000023 Ry

     iteration #  3     ecut=    50.00 Ry     beta=0.70
     Davidson diagonalization with overlap
     ethr =  5.66E-04,  avg # of iterations =  6.0

     negative rho (up, down):  1.947E+00 0.000E+00

     total cpu time spent up to now is     1903.6 secs

     total energy              =   -7378.53400172 Ry
     Harris-Foulkes estimate   =   -7380.72295509 Ry
     estimated scf accuracy    <       8.76498433 Ry

     iteration #  4     ecut=    50.00 Ry     beta=0.70
     Davidson diagonalization with overlap
     ethr =  5.66E-04,  avg # of iterations =  6.0

     negative rho (up, down):  1.951E+00 0.000E+00

     total cpu time spent up to now is     2208.3 secs

     total energy              =   -7379.39557225 Ry
     Harris-Foulkes estimate   =   -7380.39351682 Ry
     estimated scf accuracy    <       4.72482686 Ry

     iteration #  5     ecut=    50.00 Ry     beta=0.70
     Davidson diagonalization with overlap
     ethr =  5.66E-04,  avg # of iterations =  6.0

     negative rho (up, down):  1.960E+00 0.000E+00

     total cpu time spent up to now is     2480.5 secs

     total energy              =   -7379.59665972 Ry
     Harris-Foulkes estimate   =   -7380.44992708 Ry
     estimated scf accuracy    <       7.26959779 Ry

     iteration #  6     ecut=    50.00 Ry     beta=0.70
     Davidson diagonalization with overlap
     ethr =  5.66E-04,  avg # of iterations =  4.5

     negative rho (up, down):  1.965E+00 0.000E+00

     total cpu time spent up to now is     2749.6 secs

     total energy              =   -7379.97555090 Ry
     Harris-Foulkes estimate   =   -7380.01828068 Ry
     estimated scf accuracy    <       0.13427358 Ry

     iteration #  7     ecut=    50.00 Ry     beta=0.70
     Davidson diagonalization with overlap
     ethr =  1.68E-05,  avg # of iterations = 12.2

     negative rho (up, down):  1.967E+00 0.000E+00

     total cpu time spent up to now is     3216.8 secs

     total energy              =   -7379.96622900 Ry
     Harris-Foulkes estimate   =   -7380.02465498 Ry
     estimated scf accuracy    <       0.32493743 Ry

     iteration #  8     ecut=    50.00 Ry     beta=0.70
     Davidson diagonalization with overlap
     ethr =  1.68E-05,  avg # of iterations =  3.2

     negative rho (up, down):  1.968E+00 0.000E+00

     total cpu time spent up to now is     3510.1 secs

     total energy              =   -7379.98196533 Ry
     Harris-Foulkes estimate   =   -7379.99848538 Ry
     estimated scf accuracy    <       0.06405091 Ry

     iteration #  9     ecut=    50.00 Ry     beta=0.70
     Davidson diagonalization with overlap
     ethr =  8.01E-06,  avg # of iterations =  8.0

     negative rho (up, down):  1.969E+00 0.000E+00

     total cpu time spent up to now is     3805.5 secs

     total energy              =   -7379.97891382 Ry
     Harris-Foulkes estimate   =   -7379.99028583 Ry
     estimated scf accuracy    <       0.03746292 Ry

     iteration # 10     ecut=    50.00 Ry     beta=0.70
     Davidson diagonalization with overlap
     ethr =  4.68E-06,  avg # of iterations = 11.3

     negative rho (up, down):  1.971E+00 0.000E+00

     total cpu time spent up to now is     4120.2 secs

     total energy              =   -7379.97868853 Ry
     Harris-Foulkes estimate   =   -7379.98383761 Ry
     estimated scf accuracy    <       0.01416860 Ry

     iteration # 11     ecut=    50.00 Ry     beta=0.70
     Davidson diagonalization with overlap
     c_bands:  1 eigenvalues not converged
     ethr =  1.77E-06,  avg # of iterations = 14.5

     negative rho (up, down):  1.971E+00 0.000E+00

     total cpu time spent up to now is     4514.5 secs

     total energy              =   -7379.97889859 Ry
     Harris-Foulkes estimate   =   -7379.98088412 Ry
     estimated scf accuracy    <       0.00653745 Ry

     iteration # 12     ecut=    50.00 Ry     beta=0.70
     Davidson diagonalization with overlap
     ethr =  8.17E-07,  avg # of iterations =  8.7

     negative rho (up, down):  1.972E+00 0.000E+00

     total cpu time spent up to now is     4762.2 secs

     total energy              =   -7379.97828476 Ry
     Harris-Foulkes estimate   =   -7379.97955163 Ry
     estimated scf accuracy    <       0.00167419 Ry

     iteration # 13     ecut=    50.00 Ry     beta=0.70
     Davidson diagonalization with overlap
     ethr =  2.09E-07,  avg # of iterations =  9.8

     negative rho (up, down):  1.971E+00 0.000E+00

     total cpu time spent up to now is     5144.7 secs

     total energy              =   -7379.97728690 Ry
     Harris-Foulkes estimate   =   -7379.98022704 Ry
     estimated scf accuracy    <       0.01606962 Ry

     iteration # 14     ecut=    50.00 Ry     beta=0.70
     Davidson diagonalization with overlap
     ethr =  2.09E-07,  avg # of iterations =  3.0

     negative rho (up, down):  1.971E+00 0.000E+00

     total cpu time spent up to now is     5443.6 secs

     total energy              =   -7379.97863099 Ry
     Harris-Foulkes estimate   =   -7379.97886586 Ry
     estimated scf accuracy    <       0.00080470 Ry

     iteration # 15     ecut=    50.00 Ry     beta=0.70
     Davidson diagonalization with overlap
     ethr =  1.01E-07,  avg # of iterations =  2.0

     negative rho (up, down):  1.971E+00 0.000E+00

     total cpu time spent up to now is     5709.8 secs

     total energy              =   -7379.97851823 Ry
     Harris-Foulkes estimate   =   -7379.97899666 Ry
     estimated scf accuracy    <       0.00335111 Ry

     iteration # 16     ecut=    50.00 Ry     beta=0.70
     Davidson diagonalization with overlap
     ethr =  1.01E-07,  avg # of iterations =  2.0

     negative rho (up, down):  1.971E+00 0.000E+00

     total cpu time spent up to now is     5930.5 secs

     total energy              =   -7379.97874398 Ry
     Harris-Foulkes estimate   =   -7379.97880424 Ry
     estimated scf accuracy    <       0.00039595 Ry

     iteration # 17     ecut=    50.00 Ry     beta=0.70
     Davidson diagonalization with overlap
     ethr =  4.95E-08,  avg # of iterations =  2.0

     negative rho (up, down):  1.971E+00 0.000E+00

     total cpu time spent up to now is     6168.6 secs

     total energy              =   -7379.97877241 Ry
     Harris-Foulkes estimate   =   -7379.97878396 Ry
     estimated scf accuracy    <       0.00003459 Ry

     iteration # 18     ecut=    50.00 Ry     beta=0.70
     Davidson diagonalization with overlap
     ethr =  4.32E-09,  avg # of iterations =  2.0

     negative rho (up, down):  1.971E+00 0.000E+00

     total cpu time spent up to now is     6440.9 secs

     total energy              =   -7379.97877762 Ry
     Harris-Foulkes estimate   =   -7379.97877990 Ry
     estimated scf accuracy    <       0.00000565 Ry

     iteration # 19     ecut=    50.00 Ry     beta=0.70
     Davidson diagonalization with overlap
     ethr =  7.07E-10,  avg # of iterations =  3.0

     negative rho (up, down):  1.971E+00 0.000E+00

     total cpu time spent up to now is     6682.8 secs

     total energy              =   -7379.97877803 Ry
     Harris-Foulkes estimate   =   -7379.97877964 Ry
     estimated scf accuracy    <       0.00000638 Ry

     iteration # 20     ecut=    50.00 Ry     beta=0.70
     Davidson diagonalization with overlap
     ethr =  7.07E-10,  avg # of iterations =  2.0

     negative rho (up, down):  1.971E+00 0.000E+00

     total cpu time spent up to now is     6920.3 secs

     total energy              =   -7379.97877856 Ry
     Harris-Foulkes estimate   =   -7379.97877937 Ry
     estimated scf accuracy    <       0.00000387 Ry

     iteration # 21     ecut=    50.00 Ry     beta=0.70
     Davidson diagonalization with overlap
     ethr =  4.84E-10,  avg # of iterations =  2.0

     negative rho (up, down):  1.971E+00 0.000E+00

     total cpu time spent up to now is     7157.3 secs

     total energy              =   -7379.97877892 Ry
     Harris-Foulkes estimate   =   -7379.97877914 Ry
     estimated scf accuracy    <       0.00000089 Ry

     iteration # 22     ecut=    50.00 Ry     beta=0.70
     Davidson diagonalization with overlap
     ethr =  1.11E-10,  avg # of iterations =  2.0

     negative rho (up, down):  1.971E+00 0.000E+00

     total cpu time spent up to now is     7358.2 secs

     total energy              =   -7379.97877899 Ry
     Harris-Foulkes estimate   =   -7379.97877911 Ry
     estimated scf accuracy    <       0.00000041 Ry

     iteration # 23     ecut=    50.00 Ry     beta=0.70
     Davidson diagonalization with overlap
     ethr =  5.08E-11,  avg # of iterations =  3.0

     negative rho (up, down):  1.971E+00 0.000E+00

     total cpu time spent up to now is     7608.6 secs

     total energy              =   -7379.97877901 Ry
     Harris-Foulkes estimate   =   -7379.97877909 Ry
     estimated scf accuracy    <       0.00000031 Ry

     iteration # 24     ecut=    50.00 Ry     beta=0.70
     Davidson diagonalization with overlap
     ethr =  3.88E-11,  avg # of iterations =  2.0

     negative rho (up, down):  1.971E+00 0.000E+00

     total cpu time spent up to now is     7845.0 secs

     total energy              =   -7379.97877904 Ry
     Harris-Foulkes estimate   =   -7379.97877908 Ry
     estimated scf accuracy    <       0.00000025 Ry

     iteration # 25     ecut=    50.00 Ry     beta=0.70
     Davidson diagonalization with overlap
     ethr =  3.07E-11,  avg # of iterations =  2.0

     negative rho (up, down):  1.971E+00 0.000E+00

     total cpu time spent up to now is     8042.5 secs

     total energy              =   -7379.97877905 Ry
     Harris-Foulkes estimate   =   -7379.97877906 Ry
     estimated scf accuracy    <       0.00000003 Ry

     iteration # 26     ecut=    50.00 Ry     beta=0.70
     Davidson diagonalization with overlap
     ethr =  3.80E-12,  avg # of iterations =  2.0

     negative rho (up, down):  1.971E+00 0.000E+00

     total cpu time spent up to now is     8310.4 secs

     total energy              =   -7379.97877904 Ry
     Harris-Foulkes estimate   =   -7379.97877908 Ry
     estimated scf accuracy    <       0.00000025 Ry

     iteration # 27     ecut=    50.00 Ry     beta=0.70
     Davidson diagonalization with overlap
     ethr =  3.80E-12,  avg # of iterations =  2.0

     negative rho (up, down):  1.971E+00 0.000E+00

     total cpu time spent up to now is     8556.4 secs

     total energy              =   -7379.97877906 Ry
     Harris-Foulkes estimate   =   -7379.97877906 Ry
     estimated scf accuracy    <       0.00000003 Ry

     iteration # 28     ecut=    50.00 Ry     beta=0.70
     Davidson diagonalization with overlap
     ethr =  3.36E-12,  avg # of iterations =  2.0

     negative rho (up, down):  1.971E+00 0.000E+00

     total cpu time spent up to now is     8757.1 secs

     End of self-consistent calculation

          k = 0.2500 0.2500 0.0833 (167653 PWs)   bands (ev):

   -19.1322  -6.9453  -6.8516  -6.3213  -6.3212  -5.8831  -5.4796  -5.3809
    -5.3808  -5.1591  -5.1591  -5.0621  -5.0620  -4.9286  -4.9210  -4.8115
    -4.7231  -4.7189  -4.6978  -4.6978  -4.5167  -4.5155  -4.5154  -4.4889
    -4.4846  -4.4842  -4.4802  -4.4269  -4.4268  -4.4242  -4.4241  -4.3605
    -4.3320  -4.3320  -4.2752  -4.2720  -4.2707  -4.2346  -4.2345  -4.2207
    -4.2161  -4.1974  -4.1974  -4.1603  -4.1278  -4.1276  -4.1248  -4.1219
    -4.1218  -4.0916  -4.0612  -4.0612  -4.0317  -4.0316  -4.0276  -4.0276
    -4.0257  -4.0193  -3.9872  -3.9871  -3.9269  -3.9268  -3.8947  -3.8685
    -3.8611  -3.8580  -3.8576  -3.8354  -3.8354  -3.8235  -3.7732  -3.7731
    -3.7672  -3.7672  -3.6817  -3.6816  -3.6595  -3.6594  -3.6249  -3.6226
    -3.6088  -3.5836  -3.5836  -3.5393  -3.5392  -3.5367  -3.5366  -3.5119
    -3.5118  -3.4315  -3.4312  -3.4300  -3.4151  -3.4002  -3.3972  -3.3845
    -3.3844  -3.3771  -3.3771  -3.3344  -3.3344  -3.3114  -3.3114  -3.2748
    -3.2747  -3.2484  -3.2273  -3.2273  -3.1811  -3.1810  -3.1485  -3.1422
    -3.1209  -3.1206  -3.1198  -3.1194  -3.1154  -3.1154  -3.0884  -3.0784
    -3.0400  -3.0400  -3.0189  -2.9953  -2.9923  -2.9922  -2.9857  -2.9856
    -2.9813  -2.9813  -2.9462  -2.9452  -2.9452  -2.9397  -2.9396  -2.9347
    -2.8792  -2.8740  -2.8696  -2.8695  -2.8474  -2.8474  -2.8421  -2.7534
    -2.7428  -2.7427  -2.7331  -2.7330  -2.7273  -2.7260  -2.7250  -2.7171
    -2.7171  -2.7064  -2.6991  -2.6958  -2.6957  -2.6912  -2.6812  -2.6760
    -2.6739  -2.6517  -2.6410  -2.6409  -2.6251  -2.6251  -2.6081  -2.6081
    -2.5992  -2.5992  -2.5786  -2.5658  -2.5658  -2.5605  -2.5604  -2.5266
    -2.5242  -2.5241  -2.4662  -2.4625  -2.4477  -2.4476  -2.4371  -2.4328
    -2.4096  -2.4095  -2.4053  -2.3925  -2.3924  -2.3808  -2.3807  -2.3640
    -2.3638  -2.3368  -2.3368  -2.3265  -2.3265  -2.3167  -2.3166  -2.2994
    -2.2864  -2.2657  -2.1969  -2.1953  -2.1761  -2.1760  -2.1641  -2.1640
    -2.1140  -2.1138  -2.0987  -2.0792  -2.0666  -2.0666  -2.0484  -2.0300
    -2.0300  -2.0168  -2.0100  -1.9789  -1.9787  -1.9762  -1.9682  -1.9682
    -1.9615  -1.9614  -1.9422  -1.9332  -1.9239  -1.9239  -1.9234  -1.9233
    -1.9222  -1.9220  -1.9082  -1.8882  -1.8881  -1.8847  -1.8793  -1.8665
    -1.8664  -1.8620  -1.8619  -1.8561  -1.8542  -1.8199  -1.8198  -1.7752
    -1.7560  -1.7559  -1.7101  -1.7101  -1.7099  -1.6992  -1.6991  -1.6853
    -1.6851  -1.6776  -1.6775  -1.6671  -1.6670  -1.6466  -1.6466  -1.6097
    -1.6096  -1.5922  -1.5699  -1.5698  -1.5303  -1.5303  -1.4798  -1.4797
    -1.4588  -1.4346  -1.4323  -1.4323  -1.4269  -1.4255  -1.4060  -1.4060
    -1.4050  -1.4049  -1.4030  -1.4028  -1.4020  -1.4010  -1.3996  -1.3727
    -1.3726  -1.3397  -1.3385  -1.3385  -1.3164  -1.3164  -1.3116  -1.3115
    -1.3084  -1.2981  -1.2703  -1.2701  -1.2459  -1.2445  -1.2442  -1.2241
    -1.2128  -1.2127  -1.1834  -1.1833  -1.1766  -1.1764  -1.1379  -1.1377
    -1.1258  -1.1257  -1.1249  -1.1248  -1.1024  -1.0985  -1.0985  -1.0843
    -1.0770  -1.0770  -1.0650  -1.0649  -1.0632  -1.0630  -1.0520  -1.0420
    -1.0410  -1.0344  -1.0343  -1.0274  -1.0233  -1.0233  -1.0071  -0.9652
    -0.9636  -0.9630  -0.9613  -0.9585  -0.9566  -0.9282  -0.9281  -0.9144
    -0.8967  -0.8966  -0.8883  -0.8883  -0.8800  -0.8733  -0.8710  -0.8350
    -0.8349  -0.8236  -0.8236  -0.8033  -0.8032  -0.7877  -0.7636  -0.7555
    -0.7378  -0.7377  -0.7000  -0.6999  -0.6967  -0.6966  -0.6963  -0.6903
    -0.6889  -0.6889  -0.6846  -0.6822  -0.6491  -0.6490  -0.6474  -0.6474
    -0.6464  -0.6462  -0.6321  -0.6320  -0.6037  -0.3426  -0.3342  -0.2894
    -0.2890  -0.2582  -0.1995  -0.0470  -0.0469  -0.0162   0.2686   0.2686
     0.6094   0.6098   0.6531   0.6531   0.7031   0.7033   0.8627   0.8629
     0.9908   0.9924   1.1061   1.6016   1.6430   1.6485   1.6845   1.6850
     1.8218   1.8231   1.8783   1.8784   2.0609   2.0610   2.3459   2.3728
     2.3733   2.3939   2.8284   2.8297   2.8520   2.8530   2.8689   2.8690
     2.9345   2.9353   3.0911   3.2130   3.2134   3.4009   3.4054   3.5096
     3.5816   3.5817   3.8813   3.8817   3.9381   3.9398   3.9399   4.0868
     4.0871   4.0987   4.1102   4.3833   4.3833   4.4200   4.4206   4.5348
     4.5387   4.6007   4.6026   4.8698   5.1213   5.4838   5.4846   5.5643
     5.5703   5.6911   5.6914   5.7628   5.7633   5.7802   5.7803   5.8602
     5.8878   5.8934   6.0229   6.1660   6.1795   6.1803   6.1899   6.1931
     6.1954   6.2074   6.2993   6.3448   6.3705   6.3846   6.4805   6.5019

          k = 0.2500 0.2500-0.2500 (167588 PWs)   bands (ev):

   -19.1322  -6.9453  -6.8516  -6.3213  -6.3212  -5.8831  -5.4796  -5.3809
    -5.3808  -5.1591  -5.1591  -5.0621  -5.0620  -4.9286  -4.9210  -4.8115
    -4.7231  -4.7189  -4.6978  -4.6978  -4.5167  -4.5155  -4.5154  -4.4889
    -4.4846  -4.4842  -4.4802  -4.4269  -4.4268  -4.4242  -4.4241  -4.3605
    -4.3320  -4.3320  -4.2752  -4.2720  -4.2707  -4.2346  -4.2345  -4.2207
    -4.2161  -4.1974  -4.1974  -4.1603  -4.1278  -4.1276  -4.1248  -4.1219
    -4.1218  -4.0916  -4.0612  -4.0611  -4.0317  -4.0316  -4.0276  -4.0276
    -4.0257  -4.0193  -3.9872  -3.9871  -3.9269  -3.9268  -3.8947  -3.8685
    -3.8611  -3.8580  -3.8576  -3.8354  -3.8354  -3.8235  -3.7732  -3.7731
    -3.7672  -3.7672  -3.6817  -3.6816  -3.6595  -3.6594  -3.6249  -3.6226
    -3.6088  -3.5836  -3.5836  -3.5393  -3.5392  -3.5367  -3.5366  -3.5119
    -3.5118  -3.4315  -3.4312  -3.4301  -3.4151  -3.4002  -3.3972  -3.3845
    -3.3844  -3.3771  -3.3771  -3.3343  -3.3343  -3.3114  -3.3114  -3.2748
    -3.2747  -3.2484  -3.2273  -3.2273  -3.1811  -3.1810  -3.1485  -3.1422
    -3.1209  -3.1206  -3.1198  -3.1194  -3.1154  -3.1154  -3.0884  -3.0784
    -3.0400  -3.0400  -3.0189  -2.9953  -2.9923  -2.9922  -2.9857  -2.9856
    -2.9813  -2.9813  -2.9462  -2.9452  -2.9451  -2.9397  -2.9396  -2.9347
    -2.8792  -2.8740  -2.8696  -2.8695  -2.8474  -2.8474  -2.8421  -2.7534
    -2.7428  -2.7427  -2.7331  -2.7330  -2.7273  -2.7260  -2.7250  -2.7171
    -2.7171  -2.7064  -2.6991  -2.6958  -2.6957  -2.6912  -2.6812  -2.6760
    -2.6739  -2.6517  -2.6410  -2.6409  -2.6251  -2.6251  -2.6081  -2.6081
    -2.5992  -2.5992  -2.5786  -2.5658  -2.5658  -2.5605  -2.5604  -2.5266
    -2.5242  -2.5241  -2.4662  -2.4625  -2.4477  -2.4476  -2.4371  -2.4328
    -2.4096  -2.4095  -2.4053  -2.3925  -2.3924  -2.3808  -2.3807  -2.3640
    -2.3638  -2.3368  -2.3368  -2.3266  -2.3265  -2.3167  -2.3166  -2.2994
    -2.2864  -2.2657  -2.1969  -2.1953  -2.1760  -2.1760  -2.1641  -2.1640
    -2.1140  -2.1138  -2.0987  -2.0792  -2.0666  -2.0666  -2.0484  -2.0300
    -2.0300  -2.0168  -2.0100  -1.9789  -1.9787  -1.9762  -1.9682  -1.9682
    -1.9615  -1.9614  -1.9422  -1.9332  -1.9239  -1.9239  -1.9234  -1.9233
    -1.9222  -1.9220  -1.9082  -1.8882  -1.8881  -1.8847  -1.8793  -1.8665
    -1.8664  -1.8620  -1.8619  -1.8561  -1.8542  -1.8199  -1.8197  -1.7752
    -1.7560  -1.7559  -1.7101  -1.7101  -1.7099  -1.6992  -1.6991  -1.6852
    -1.6851  -1.6776  -1.6775  -1.6671  -1.6670  -1.6466  -1.6466  -1.6097
    -1.6096  -1.5922  -1.5699  -1.5698  -1.5303  -1.5303  -1.4798  -1.4797
    -1.4588  -1.4346  -1.4323  -1.4323  -1.4269  -1.4255  -1.4060  -1.4060
    -1.4050  -1.4049  -1.4030  -1.4028  -1.4020  -1.4010  -1.3996  -1.3727
    -1.3726  -1.3397  -1.3385  -1.3385  -1.3164  -1.3164  -1.3116  -1.3115
    -1.3084  -1.2981  -1.2703  -1.2701  -1.2459  -1.2445  -1.2442  -1.2241
    -1.2128  -1.2127  -1.1834  -1.1834  -1.1766  -1.1764  -1.1379  -1.1377
    -1.1258  -1.1257  -1.1249  -1.1248  -1.1024  -1.0985  -1.0985  -1.0843
    -1.0770  -1.0770  -1.0650  -1.0649  -1.0632  -1.0630  -1.0520  -1.0420
    -1.0410  -1.0343  -1.0343  -1.0274  -1.0233  -1.0233  -1.0071  -0.9652
    -0.9636  -0.9630  -0.9613  -0.9585  -0.9566  -0.9282  -0.9281  -0.9144
    -0.8967  -0.8966  -0.8883  -0.8882  -0.8800  -0.8733  -0.8710  -0.8350
    -0.8349  -0.8236  -0.8236  -0.8033  -0.8032  -0.7878  -0.7636  -0.7555
    -0.7378  -0.7377  -0.7000  -0.6999  -0.6967  -0.6966  -0.6963  -0.6903
    -0.6889  -0.6889  -0.6846  -0.6822  -0.6491  -0.6490  -0.6474  -0.6473
    -0.6464  -0.6462  -0.6321  -0.6320  -0.6037  -0.3426  -0.3342  -0.2894
    -0.2890  -0.2582  -0.1995  -0.0469  -0.0469  -0.0162   0.2686   0.2686
     0.6094   0.6098   0.6531   0.6531   0.7031   0.7033   0.8627   0.8629
     0.9908   0.9925   1.1061   1.6016   1.6430   1.6485   1.6845   1.6850
     1.8218   1.8231   1.8783   1.8784   2.0609   2.0610   2.3459   2.3728
     2.3733   2.3939   2.8284   2.8297   2.8520   2.8530   2.8689   2.8690
     2.9345   2.9353   3.0912   3.2130   3.2134   3.4009   3.4054   3.5096
     3.5816   3.5817   3.8813   3.8817   3.9381   3.9398   3.9399   4.0868
     4.0871   4.0988   4.1103   4.3833   4.3833   4.4199   4.4206   4.5348
     4.5387   4.6007   4.6026   4.8699   5.1180   5.4838   5.4845   5.5644
     5.5697   5.6911   5.6914   5.7626   5.7633   5.7802   5.7803   5.8361
     5.8916   5.8967   6.0930   6.1455   6.1795   6.1802   6.1897   6.1931
     6.1953   6.2070   6.3101   6.3626   6.3654   6.4178   6.4859   6.4998

          k =-0.2500-0.2500 0.0833 (167653 PWs)   bands (ev):

   -19.1322  -6.9453  -6.8516  -6.3213  -6.3212  -5.8831  -5.4796  -5.3809
    -5.3808  -5.1591  -5.1591  -5.0621  -5.0620  -4.9286  -4.9210  -4.8115
    -4.7231  -4.7189  -4.6978  -4.6978  -4.5167  -4.5155  -4.5154  -4.4889
    -4.4846  -4.4842  -4.4802  -4.4269  -4.4268  -4.4242  -4.4241  -4.3605
    -4.3320  -4.3320  -4.2752  -4.2720  -4.2707  -4.2346  -4.2345  -4.2207
    -4.2161  -4.1974  -4.1974  -4.1603  -4.1278  -4.1276  -4.1248  -4.1219
    -4.1218  -4.0916  -4.0612  -4.0612  -4.0317  -4.0316  -4.0276  -4.0276
    -4.0257  -4.0193  -3.9872  -3.9871  -3.9269  -3.9268  -3.8947  -3.8685
    -3.8611  -3.8580  -3.8576  -3.8354  -3.8354  -3.8235  -3.7732  -3.7731
    -3.7672  -3.7672  -3.6817  -3.6816  -3.6595  -3.6594  -3.6249  -3.6226
    -3.6088  -3.5836  -3.5836  -3.5393  -3.5392  -3.5367  -3.5366  -3.5119
    -3.5118  -3.4315  -3.4312  -3.4300  -3.4151  -3.4002  -3.3972  -3.3845
    -3.3844  -3.3771  -3.3771  -3.3344  -3.3344  -3.3114  -3.3114  -3.2748
    -3.2747  -3.2484  -3.2273  -3.2273  -3.1811  -3.1810  -3.1485  -3.1422
    -3.1209  -3.1206  -3.1198  -3.1194  -3.1154  -3.1154  -3.0884  -3.0784
    -3.0400  -3.0400  -3.0189  -2.9953  -2.9923  -2.9922  -2.9857  -2.9856
    -2.9813  -2.9813  -2.9462  -2.9452  -2.9452  -2.9397  -2.9396  -2.9347
    -2.8792  -2.8740  -2.8696  -2.8695  -2.8474  -2.8474  -2.8421  -2.7534
    -2.7428  -2.7427  -2.7331  -2.7330  -2.7273  -2.7260  -2.7250  -2.7171
    -2.7171  -2.7064  -2.6991  -2.6958  -2.6957  -2.6912  -2.6812  -2.6760
    -2.6739  -2.6517  -2.6410  -2.6409  -2.6251  -2.6251  -2.6081  -2.6081
    -2.5992  -2.5992  -2.5786  -2.5658  -2.5658  -2.5605  -2.5604  -2.5266
    -2.5242  -2.5241  -2.4662  -2.4625  -2.4477  -2.4476  -2.4371  -2.4328
    -2.4096  -2.4095  -2.4053  -2.3925  -2.3924  -2.3808  -2.3807  -2.3640
    -2.3638  -2.3368  -2.3368  -2.3265  -2.3265  -2.3167  -2.3166  -2.2994
    -2.2864  -2.2657  -2.1969  -2.1953  -2.1761  -2.1760  -2.1641  -2.1640
    -2.1140  -2.1138  -2.0987  -2.0792  -2.0666  -2.0666  -2.0484  -2.0300
    -2.0300  -2.0168  -2.0100  -1.9789  -1.9787  -1.9762  -1.9682  -1.9682
    -1.9615  -1.9614  -1.9422  -1.9332  -1.9239  -1.9239  -1.9234  -1.9233
    -1.9222  -1.9220  -1.9082  -1.8882  -1.8881  -1.8847  -1.8793  -1.8665
    -1.8664  -1.8620  -1.8619  -1.8561  -1.8542  -1.8199  -1.8198  -1.7752
    -1.7560  -1.7559  -1.7101  -1.7101  -1.7099  -1.6992  -1.6991  -1.6853
    -1.6851  -1.6776  -1.6775  -1.6671  -1.6670  -1.6466  -1.6466  -1.6097
    -1.6096  -1.5922  -1.5699  -1.5698  -1.5303  -1.5303  -1.4798  -1.4797
    -1.4588  -1.4346  -1.4323  -1.4323  -1.4269  -1.4255  -1.4060  -1.4060
    -1.4050  -1.4049  -1.4030  -1.4028  -1.4020  -1.4010  -1.3996  -1.3727
    -1.3726  -1.3397  -1.3385  -1.3385  -1.3164  -1.3164  -1.3116  -1.3115
    -1.3084  -1.2981  -1.2703  -1.2701  -1.2459  -1.2445  -1.2442  -1.2241
    -1.2128  -1.2127  -1.1834  -1.1833  -1.1766  -1.1764  -1.1379  -1.1377
    -1.1258  -1.1257  -1.1249  -1.1248  -1.1024  -1.0985  -1.0985  -1.0843
    -1.0770  -1.0770  -1.0650  -1.0649  -1.0632  -1.0630  -1.0520  -1.0420
    -1.0410  -1.0344  -1.0343  -1.0274  -1.0233  -1.0233  -1.0071  -0.9652
    -0.9636  -0.9630  -0.9613  -0.9585  -0.9566  -0.9282  -0.9281  -0.9144
    -0.8967  -0.8966  -0.8883  -0.8883  -0.8800  -0.8733  -0.8710  -0.8350
    -0.8349  -0.8236  -0.8236  -0.8033  -0.8032  -0.7877  -0.7636  -0.7555
    -0.7378  -0.7377  -0.7000  -0.6999  -0.6967  -0.6966  -0.6963  -0.6903
    -0.6889  -0.6889  -0.6846  -0.6822  -0.6491  -0.6490  -0.6474  -0.6474
    -0.6464  -0.6462  -0.6321  -0.6320  -0.6037  -0.3426  -0.3342  -0.2894
    -0.2890  -0.2582  -0.1995  -0.0470  -0.0469  -0.0162   0.2686   0.2686
     0.6094   0.6098   0.6531   0.6531   0.7031   0.7033   0.8627   0.8629
     0.9908   0.9924   1.1061   1.6016   1.6430   1.6485   1.6845   1.6850
     1.8218   1.8231   1.8783   1.8784   2.0609   2.0610   2.3459   2.3728
     2.3733   2.3939   2.8284   2.8297   2.8520   2.8530   2.8689   2.8690
     2.9345   2.9353   3.0911   3.2130   3.2134   3.4009   3.4054   3.5096
     3.5816   3.5817   3.8813   3.8817   3.9381   3.9398   3.9399   4.0868
     4.0871   4.0987   4.1102   4.3833   4.3833   4.4199   4.4206   4.5348
     4.5387   4.6007   4.6026   4.8698   5.1212   5.4838   5.4846   5.5643
     5.5706   5.6911   5.6914   5.7627   5.7633   5.7802   5.7803   5.8472
     5.8908   5.8933   6.0503   6.1575   6.1795   6.1802   6.1898   6.1931
     6.1954   6.2074   6.2990   6.3449   6.3658   6.3839   6.4577   6.5027

          k =-0.2500 0.2500-0.0833 (167653 PWs)   bands (ev):

   -19.1322  -6.9453  -6.8516  -6.3215  -6.3211  -5.8831  -5.4796  -5.3811
    -5.3807  -5.1592  -5.1591  -5.0624  -5.0617  -4.9286  -4.9210  -4.8115
    -4.7231  -4.7189  -4.6979  -4.6977  -4.5167  -4.5156  -4.5153  -4.4889
    -4.4846  -4.4842  -4.4802  -4.4271  -4.4266  -4.4243  -4.4240  -4.3605
    -4.3320  -4.3319  -4.2752  -4.2720  -4.2707  -4.2348  -4.2343  -4.2207
    -4.2161  -4.1974  -4.1974  -4.1603  -4.1279  -4.1276  -4.1248  -4.1220
    -4.1217  -4.0916  -4.0614  -4.0610  -4.0318  -4.0315  -4.0276  -4.0275
    -4.0257  -4.0193  -3.9875  -3.9868  -3.9271  -3.9267  -3.8947  -3.8684
    -3.8611  -3.8580  -3.8575  -3.8354  -3.8353  -3.8235  -3.7732  -3.7731
    -3.7674  -3.7670  -3.6819  -3.6814  -3.6597  -3.6592  -3.6249  -3.6226
    -3.6088  -3.5836  -3.5836  -3.5394  -3.5390  -3.5368  -3.5365  -3.5121
    -3.5116  -3.4315  -3.4312  -3.4300  -3.4151  -3.4002  -3.3972  -3.3846
    -3.3843  -3.3772  -3.3770  -3.3344  -3.3343  -3.3116  -3.3113  -3.2749
    -3.2746  -3.2484  -3.2274  -3.2273  -3.1812  -3.1809  -3.1485  -3.1422
    -3.1210  -3.1206  -3.1199  -3.1194  -3.1155  -3.1153  -3.0884  -3.0784
    -3.0400  -3.0400  -3.0189  -2.9953  -2.9924  -2.9922  -2.9859  -2.9854
    -2.9814  -2.9813  -2.9462  -2.9452  -2.9451  -2.9397  -2.9396  -2.9347
    -2.8792  -2.8740  -2.8698  -2.8693  -2.8474  -2.8473  -2.8421  -2.7534
    -2.7429  -2.7426  -2.7333  -2.7328  -2.7273  -2.7260  -2.7250  -2.7172
    -2.7170  -2.7064  -2.6991  -2.6959  -2.6955  -2.6912  -2.6812  -2.6760
    -2.6739  -2.6517  -2.6412  -2.6407  -2.6252  -2.6250  -2.6081  -2.6081
    -2.5993  -2.5991  -2.5786  -2.5658  -2.5658  -2.5605  -2.5603  -2.5266
    -2.5242  -2.5241  -2.4662  -2.4626  -2.4477  -2.4476  -2.4371  -2.4328
    -2.4097  -2.4094  -2.4053  -2.3927  -2.3923  -2.3811  -2.3804  -2.3642
    -2.3635  -2.3368  -2.3368  -2.3267  -2.3264  -2.3168  -2.3165  -2.2994
    -2.2864  -2.2657  -2.1969  -2.1953  -2.1762  -2.1759  -2.1642  -2.1640
    -2.1143  -2.1135  -2.0987  -2.0792  -2.0667  -2.0665  -2.0484  -2.0301
    -2.0299  -2.0168  -2.0100  -1.9793  -1.9784  -1.9761  -1.9682  -1.9681
    -1.9616  -1.9613  -1.9422  -1.9332  -1.9241  -1.9237  -1.9235  -1.9233
    -1.9225  -1.9217  -1.9082  -1.8882  -1.8881  -1.8847  -1.8793  -1.8666
    -1.8663  -1.8621  -1.8618  -1.8561  -1.8542  -1.8201  -1.8195  -1.7752
    -1.7562  -1.7557  -1.7102  -1.7100  -1.7099  -1.6994  -1.6989  -1.6855
    -1.6849  -1.6778  -1.6773  -1.6673  -1.6668  -1.6467  -1.6466  -1.6098
    -1.6094  -1.5922  -1.5700  -1.5697  -1.5305  -1.5301  -1.4798  -1.4797
    -1.4588  -1.4346  -1.4325  -1.4321  -1.4270  -1.4255  -1.4062  -1.4059
    -1.4050  -1.4047  -1.4031  -1.4026  -1.4020  -1.4009  -1.3996  -1.3727
    -1.3726  -1.3397  -1.3386  -1.3385  -1.3165  -1.3163  -1.3118  -1.3114
    -1.3084  -1.2981  -1.2704  -1.2700  -1.2459  -1.2447  -1.2439  -1.2241
    -1.2130  -1.2125  -1.1836  -1.1832  -1.1766  -1.1764  -1.1381  -1.1375
    -1.1259  -1.1256  -1.1250  -1.1247  -1.1024  -1.0987  -1.0984  -1.0843
    -1.0772  -1.0768  -1.0653  -1.0646  -1.0634  -1.0628  -1.0520  -1.0420
    -1.0410  -1.0344  -1.0343  -1.0274  -1.0235  -1.0231  -1.0071  -0.9652
    -0.9636  -0.9630  -0.9613  -0.9585  -0.9566  -0.9283  -0.9281  -0.9144
    -0.8971  -0.8962  -0.8883  -0.8882  -0.8800  -0.8733  -0.8710  -0.8352
    -0.8347  -0.8236  -0.8236  -0.8033  -0.8032  -0.7877  -0.7636  -0.7555
    -0.7379  -0.7375  -0.7000  -0.6999  -0.6968  -0.6965  -0.6963  -0.6903
    -0.6890  -0.6887  -0.6846  -0.6822  -0.6492  -0.6489  -0.6475  -0.6472
    -0.6468  -0.6458  -0.6323  -0.6319  -0.6037  -0.3426  -0.3342  -0.2902
    -0.2882  -0.2582  -0.1995  -0.0471  -0.0467  -0.0162   0.2684   0.2688
     0.6086   0.6106   0.6530   0.6532   0.7027   0.7037   0.8622   0.8634
     0.9908   0.9925   1.1061   1.6016   1.6430   1.6485   1.6845   1.6850
     1.8199   1.8250   1.8778   1.8789   2.0607   2.0612   2.3459   2.3719
     2.3742   2.3939   2.8268   2.8312   2.8520   2.8530   2.8686   2.8692
     2.9345   2.9353   3.0910   3.2118   3.2146   3.4009   3.4052   3.5096
     3.5812   3.5821   3.8805   3.8824   3.9380   3.9398   3.9402   4.0863
     4.0876   4.0955   4.1133   4.3833   4.3834   4.4199   4.4207   4.5348
     4.5386   4.5996   4.6043   4.8713   5.1189   5.4840   5.4849   5.5621
     5.5716   5.6905   5.6920   5.7628   5.7634   5.7798   5.7806   5.8582
     5.8888   5.8928   6.0224   6.1682   6.1788   6.1811   6.1899   6.1931
     6.1956   6.2074   6.3042   6.3483   6.3666   6.3802   6.4706   6.5040

          k = 0.2500-0.2500-0.0833 (167653 PWs)   bands (ev):

   -19.1322  -6.9453  -6.8516  -6.3215  -6.3211  -5.8831  -5.4796  -5.3811
    -5.3807  -5.1592  -5.1591  -5.0624  -5.0617  -4.9286  -4.9210  -4.8115
    -4.7231  -4.7189  -4.6979  -4.6977  -4.5167  -4.5156  -4.5153  -4.4889
    -4.4846  -4.4842  -4.4802  -4.4271  -4.4266  -4.4243  -4.4240  -4.3605
    -4.3320  -4.3319  -4.2752  -4.2720  -4.2707  -4.2348  -4.2343  -4.2207
    -4.2161  -4.1974  -4.1974  -4.1603  -4.1279  -4.1276  -4.1248  -4.1220
    -4.1217  -4.0916  -4.0614  -4.0610  -4.0318  -4.0315  -4.0276  -4.0275
    -4.0257  -4.0193  -3.9875  -3.9868  -3.9271  -3.9267  -3.8947  -3.8684
    -3.8611  -3.8580  -3.8575  -3.8354  -3.8353  -3.8235  -3.7732  -3.7731
    -3.7674  -3.7670  -3.6819  -3.6814  -3.6597  -3.6592  -3.6249  -3.6226
    -3.6088  -3.5836  -3.5836  -3.5394  -3.5390  -3.5368  -3.5365  -3.5121
    -3.5116  -3.4315  -3.4312  -3.4300  -3.4151  -3.4002  -3.3972  -3.3846
    -3.3843  -3.3772  -3.3770  -3.3344  -3.3343  -3.3116  -3.3113  -3.2749
    -3.2746  -3.2484  -3.2274  -3.2273  -3.1812  -3.1809  -3.1485  -3.1422
    -3.1210  -3.1206  -3.1199  -3.1194  -3.1155  -3.1153  -3.0884  -3.0784
    -3.0400  -3.0400  -3.0189  -2.9953  -2.9924  -2.9922  -2.9859  -2.9854
    -2.9814  -2.9813  -2.9462  -2.9452  -2.9451  -2.9397  -2.9396  -2.9347
    -2.8792  -2.8740  -2.8698  -2.8693  -2.8474  -2.8473  -2.8421  -2.7534
    -2.7429  -2.7426  -2.7333  -2.7328  -2.7273  -2.7260  -2.7250  -2.7172
    -2.7170  -2.7064  -2.6991  -2.6959  -2.6955  -2.6912  -2.6812  -2.6760
    -2.6739  -2.6517  -2.6412  -2.6407  -2.6252  -2.6250  -2.6081  -2.6081
    -2.5993  -2.5991  -2.5786  -2.5658  -2.5658  -2.5605  -2.5603  -2.5266
    -2.5242  -2.5241  -2.4662  -2.4626  -2.4477  -2.4476  -2.4371  -2.4328
    -2.4097  -2.4094  -2.4053  -2.3927  -2.3923  -2.3811  -2.3804  -2.3642
    -2.3635  -2.3368  -2.3368  -2.3267  -2.3264  -2.3168  -2.3165  -2.2994
    -2.2864  -2.2657  -2.1969  -2.1953  -2.1762  -2.1759  -2.1642  -2.1640
    -2.1143  -2.1135  -2.0987  -2.0792  -2.0667  -2.0665  -2.0484  -2.0301
    -2.0299  -2.0168  -2.0100  -1.9793  -1.9784  -1.9761  -1.9682  -1.9681
    -1.9616  -1.9613  -1.9422  -1.9332  -1.9241  -1.9237  -1.9235  -1.9233
    -1.9225  -1.9217  -1.9082  -1.8882  -1.8881  -1.8847  -1.8793  -1.8666
    -1.8663  -1.8621  -1.8618  -1.8561  -1.8542  -1.8201  -1.8195  -1.7752
    -1.7562  -1.7557  -1.7102  -1.7100  -1.7099  -1.6994  -1.6989  -1.6855
    -1.6849  -1.6778  -1.6773  -1.6673  -1.6668  -1.6467  -1.6466  -1.6098
    -1.6094  -1.5922  -1.5700  -1.5697  -1.5305  -1.5301  -1.4798  -1.4797
    -1.4588  -1.4346  -1.4325  -1.4321  -1.4270  -1.4255  -1.4062  -1.4059
    -1.4050  -1.4047  -1.4031  -1.4026  -1.4020  -1.4009  -1.3996  -1.3727
    -1.3726  -1.3397  -1.3386  -1.3385  -1.3165  -1.3163  -1.3118  -1.3114
    -1.3084  -1.2981  -1.2704  -1.2700  -1.2459  -1.2447  -1.2439  -1.2241
    -1.2130  -1.2125  -1.1836  -1.1832  -1.1766  -1.1764  -1.1381  -1.1375
    -1.1259  -1.1256  -1.1250  -1.1247  -1.1024  -1.0987  -1.0984  -1.0843
    -1.0772  -1.0768  -1.0653  -1.0646  -1.0634  -1.0628  -1.0520  -1.0420
    -1.0410  -1.0344  -1.0343  -1.0274  -1.0235  -1.0231  -1.0071  -0.9652
    -0.9636  -0.9630  -0.9613  -0.9585  -0.9566  -0.9283  -0.9281  -0.9144
    -0.8971  -0.8962  -0.8883  -0.8882  -0.8800  -0.8733  -0.8710  -0.8352
    -0.8347  -0.8236  -0.8236  -0.8033  -0.8032  -0.7877  -0.7636  -0.7555
    -0.7379  -0.7375  -0.7000  -0.6999  -0.6968  -0.6965  -0.6963  -0.6903
    -0.6890  -0.6887  -0.6846  -0.6822  -0.6492  -0.6489  -0.6475  -0.6472
    -0.6468  -0.6458  -0.6323  -0.6319  -0.6037  -0.3426  -0.3342  -0.2902
    -0.2882  -0.2582  -0.1995  -0.0471  -0.0467  -0.0162   0.2684   0.2688
     0.6086   0.6106   0.6530   0.6532   0.7027   0.7037   0.8622   0.8634
     0.9908   0.9925   1.1061   1.6016   1.6430   1.6485   1.6845   1.6850
     1.8199   1.8250   1.8778   1.8789   2.0607   2.0612   2.3459   2.3719
     2.3742   2.3939   2.8268   2.8312   2.8520   2.8530   2.8686   2.8692
     2.9345   2.9353   3.0910   3.2118   3.2146   3.4009   3.4052   3.5096
     3.5812   3.5821   3.8805   3.8824   3.9380   3.9398   3.9402   4.0863
     4.0876   4.0955   4.1133   4.3833   4.3834   4.4199   4.4207   4.5348
     4.5386   4.5996   4.6043   4.8713   5.1188   5.4840   5.4849   5.5623
     5.5716   5.6905   5.6920   5.7627   5.7634   5.7798   5.7806   5.8487
     5.8888   5.8926   6.0497   6.1585   6.1787   6.1811   6.1898   6.1931
     6.1956   6.2074   6.2968   6.3464   6.3671   6.3810   6.4617   6.5062

          k =-0.2500 0.2500 0.2500 (167588 PWs)   bands (ev):

   -19.1322  -6.9453  -6.8516  -6.3215  -6.3211  -5.8831  -5.4796  -5.3811
    -5.3807  -5.1592  -5.1591  -5.0624  -5.0617  -4.9286  -4.9210  -4.8115
    -4.7231  -4.7189  -4.6979  -4.6977  -4.5167  -4.5156  -4.5153  -4.4889
    -4.4846  -4.4842  -4.4802  -4.4271  -4.4266  -4.4243  -4.4240  -4.3605
    -4.3320  -4.3319  -4.2752  -4.2720  -4.2707  -4.2348  -4.2343  -4.2207
    -4.2161  -4.1974  -4.1974  -4.1603  -4.1279  -4.1276  -4.1248  -4.1220
    -4.1217  -4.0916  -4.0614  -4.0610  -4.0318  -4.0315  -4.0276  -4.0275
    -4.0257  -4.0193  -3.9875  -3.9868  -3.9271  -3.9267  -3.8947  -3.8684
    -3.8611  -3.8580  -3.8575  -3.8354  -3.8353  -3.8235  -3.7732  -3.7731
    -3.7674  -3.7670  -3.6819  -3.6814  -3.6597  -3.6592  -3.6249  -3.6226
    -3.6088  -3.5836  -3.5836  -3.5394  -3.5390  -3.5368  -3.5365  -3.5121
    -3.5116  -3.4315  -3.4312  -3.4300  -3.4151  -3.4002  -3.3972  -3.3845
    -3.3843  -3.3772  -3.3770  -3.3344  -3.3343  -3.3116  -3.3113  -3.2749
    -3.2746  -3.2484  -3.2274  -3.2273  -3.1812  -3.1809  -3.1485  -3.1422
    -3.1210  -3.1206  -3.1199  -3.1194  -3.1155  -3.1153  -3.0884  -3.0784
    -3.0400  -3.0400  -3.0189  -2.9953  -2.9924  -2.9922  -2.9859  -2.9854
    -2.9814  -2.9813  -2.9462  -2.9452  -2.9451  -2.9397  -2.9396  -2.9347
    -2.8792  -2.8740  -2.8698  -2.8694  -2.8474  -2.8473  -2.8421  -2.7534
    -2.7429  -2.7426  -2.7333  -2.7328  -2.7273  -2.7260  -2.7250  -2.7172
    -2.7170  -2.7064  -2.6991  -2.6959  -2.6955  -2.6912  -2.6811  -2.6760
    -2.6739  -2.6517  -2.6412  -2.6407  -2.6252  -2.6250  -2.6081  -2.6081
    -2.5993  -2.5991  -2.5786  -2.5658  -2.5658  -2.5605  -2.5603  -2.5266
    -2.5242  -2.5241  -2.4662  -2.4626  -2.4477  -2.4476  -2.4371  -2.4328
    -2.4097  -2.4094  -2.4053  -2.3926  -2.3923  -2.3811  -2.3804  -2.3642
    -2.3635  -2.3368  -2.3368  -2.3267  -2.3264  -2.3168  -2.3165  -2.2994
    -2.2864  -2.2658  -2.1969  -2.1953  -2.1762  -2.1759  -2.1642  -2.1640
    -2.1143  -2.1135  -2.0987  -2.0792  -2.0667  -2.0665  -2.0484  -2.0301
    -2.0299  -2.0168  -2.0100  -1.9793  -1.9784  -1.9761  -1.9682  -1.9681
    -1.9616  -1.9613  -1.9422  -1.9332  -1.9241  -1.9237  -1.9235  -1.9233
    -1.9225  -1.9217  -1.9082  -1.8882  -1.8881  -1.8847  -1.8793  -1.8666
    -1.8662  -1.8621  -1.8618  -1.8561  -1.8542  -1.8201  -1.8195  -1.7752
    -1.7562  -1.7557  -1.7102  -1.7100  -1.7099  -1.6994  -1.6989  -1.6855
    -1.6849  -1.6778  -1.6773  -1.6672  -1.6668  -1.6467  -1.6466  -1.6098
    -1.6094  -1.5922  -1.5700  -1.5697  -1.5305  -1.5302  -1.4798  -1.4797
    -1.4588  -1.4346  -1.4325  -1.4321  -1.4270  -1.4255  -1.4062  -1.4059
    -1.4050  -1.4047  -1.4031  -1.4026  -1.4020  -1.4009  -1.3996  -1.3727
    -1.3726  -1.3397  -1.3386  -1.3385  -1.3165  -1.3163  -1.3118  -1.3114
    -1.3084  -1.2981  -1.2704  -1.2700  -1.2459  -1.2447  -1.2439  -1.2241
    -1.2130  -1.2125  -1.1836  -1.1832  -1.1766  -1.1764  -1.1381  -1.1375
    -1.1259  -1.1256  -1.1250  -1.1247  -1.1024  -1.0987  -1.0984  -1.0843
    -1.0772  -1.0768  -1.0653  -1.0646  -1.0634  -1.0628  -1.0520  -1.0420
    -1.0410  -1.0344  -1.0342  -1.0274  -1.0235  -1.0231  -1.0071  -0.9652
    -0.9636  -0.9630  -0.9613  -0.9585  -0.9566  -0.9283  -0.9281  -0.9144
    -0.8971  -0.8962  -0.8883  -0.8882  -0.8800  -0.8733  -0.8710  -0.8352
    -0.8347  -0.8236  -0.8236  -0.8033  -0.8032  -0.7877  -0.7636  -0.7555
    -0.7379  -0.7375  -0.7000  -0.6999  -0.6968  -0.6966  -0.6963  -0.6903
    -0.6890  -0.6887  -0.6846  -0.6822  -0.6492  -0.6489  -0.6475  -0.6472
    -0.6468  -0.6458  -0.6323  -0.6319  -0.6037  -0.3426  -0.3342  -0.2902
    -0.2882  -0.2582  -0.1995  -0.0471  -0.0467  -0.0162   0.2684   0.2688
     0.6085   0.6106   0.6530   0.6532   0.7027   0.7037   0.8622   0.8634
     0.9908   0.9925   1.1061   1.6016   1.6430   1.6485   1.6845   1.6850
     1.8199   1.8250   1.8778   1.8789   2.0607   2.0612   2.3459   2.3719
     2.3742   2.3939   2.8268   2.8312   2.8520   2.8530   2.8686   2.8692
     2.9345   2.9353   3.0910   3.2118   3.2146   3.4009   3.4052   3.5096
     3.5812   3.5821   3.8805   3.8824   3.9380   3.9398   3.9402   4.0863
     4.0876   4.0956   4.1134   4.3832   4.3833   4.4199   4.4207   4.5348
     4.5386   4.5996   4.6043   4.8714   5.1156   5.4839   5.4849   5.5618
     5.5713   5.6905   5.6920   5.7625   5.7634   5.7798   5.7806   5.8359
     5.8916   5.8958   6.0934   6.1461   6.1782   6.1810   6.1893   6.1931
     6.1955   6.2072   6.3036   6.3621   6.3745   6.4211   6.4817   6.5044

     the Fermi energy is     0.9346 ev

!    total energy              =   -7379.97877906 Ry
     Harris-Foulkes estimate   =   -7379.97877906 Ry
     estimated scf accuracy    <          2.6E-09 Ry

     The total energy is the sum of the following terms:

     one-electron contribution =  -48264.23557290 Ry
     hartree contribution      =   24681.22712330 Ry
     xc contribution           =   -3556.23767720 Ry
     ewald contribution        =   19759.26632019 Ry
     smearing contrib. (-TS)   =       0.00102755 Ry

     convergence has been achieved in  28 iterations

     Writing output data file 4336499.save

     init_run     :    143.79s CPU    150.73s WALL (       1 calls)
     electrons    :   8297.60s CPU   8605.71s WALL (       1 calls)

     Called by init_run:
     wfcinit      :    112.15s CPU    117.68s WALL (       1 calls)
     potinit      :      6.39s CPU      7.47s WALL (       1 calls)

     Called by electrons:
     c_bands      :   6883.72s CPU   7137.22s WALL (      29 calls)
     sum_band     :   1007.48s CPU   1056.54s WALL (      29 calls)
     v_of_rho     :     20.65s CPU     21.99s WALL (      29 calls)
     newd         :    395.36s CPU    398.51s WALL (      29 calls)
     mix_rho      :      3.36s CPU      3.75s WALL (      29 calls)

     Called by c_bands:
     init_us_2    :      9.60s CPU      9.83s WALL (     354 calls)
     cegterg      :   6541.92s CPU   6786.68s WALL (     174 calls)

     Called by *egterg:
     h_psi        :   2538.66s CPU   2757.00s WALL (    1017 calls)
     s_psi        :    224.88s CPU    226.32s WALL (    1017 calls)
     g_psi        :      5.02s CPU      5.04s WALL (     837 calls)
     cdiaghg      :   1509.70s CPU   1513.39s WALL (    1005 calls)

     Called by h_psi:
     add_vuspsi   :    225.84s CPU    227.28s WALL (    1017 calls)

     General routines
     calbec       :    816.93s CPU    819.07s WALL (    1191 calls)
     fft          :    151.14s CPU    153.63s WALL (     464 calls)
     ffts         :      2.03s CPU      2.24s WALL (      58 calls)
     fftw         :   1998.94s CPU   2243.52s WALL (  472382 calls)
     interpolate  :      5.31s CPU      5.85s WALL (      58 calls)
     davcio       :      0.00s CPU      0.10s WALL (       6 calls)

     Parallel routines
     fft_scatter  :   1623.54s CPU   1820.71s WALL (  472904 calls)

     PWSCF        :     2h20m CPU        2h26m WALL


   This run was terminated on:  18: 0:49  11Aug2015            

=------------------------------------------------------------------------------=
   JOB DONE.
=------------------------------------------------------------------------------=
