Setting SGE environment for SCC

     Program PWSCF v.5.1.2 starts on  7Aug2015 at 19:45: 3 

     This program is part of the open-source Quantum ESPRESSO suite
     for quantum simulation of materials; please cite
         "P. Giannozzi et al., J. Phys.:Condens. Matter 21 395502 (2009);
          URL http://www.quantum-espresso.org", 
     in publications or presentations arising from this work. More details at
     http://www.quantum-espresso.org/quote

     Parallel version (MPI), running on    32 processors
     R & G space division:  proc/nbgrp/npool/nimage =      32
     Reading input from top.O1.Au5859.d.3.1.phi.45.psi.0.in
Warning: card &IONS ignored
Warning: card / ignored
Warning: card &CELL ignored
Warning: card / ignored

     Current dimensions of program PWSCF are:
     Max number of different atomic species (ntypx) = 10
     Max number of k-points (npk) =  40000
     Max angular momentum in pseudopotentials (lmaxx) =  3

     Subspace diagonalization in iterative solution of the eigenvalue problem:
     a serial algorithm will be used


     Parallelization info
     --------------------
     sticks:   dense  smooth     PW     G-vecs:    dense   smooth      PW
     Min         578     289     74               118518    41891    5486
     Max         579     290     75               118533    41932    5497
     Sum       18505    9265   2385              3792731  1341081  175711


     Title: 
     top.O1.Au5859.d.3.1.phi.45.psi.0                                           


     bravais-lattice index     =            8
     lattice parameter (alat)  =      24.1233  a.u.
     unit-cell volume          =   28076.2361 (a.u.)^3
     number of atoms/cell      =           75
     number of atomic types    =            3
     number of electrons       =       800.00
     number of Kohn-Sham states=          480
     kinetic-energy cutoff     =      50.0000  Ry
     charge density cutoff     =     400.0000  Ry
     convergence threshold     =      1.0E-08
     mixing beta               =       0.7000
     number of iterations used =            8  plain     mixing
     Exchange-correlation      =  SLA  PW   PBE  PBE ( 1  4  3  4 0 0)

     celldm(1)=  24.123277  celldm(2)=   1.000000  celldm(3)=   2.000000
     celldm(4)=   0.000000  celldm(5)=   0.000000  celldm(6)=   0.000000

     crystal axes: (cart. coord. in units of alat)
               a(1) = (   1.000000   0.000000   0.000000 )  
               a(2) = (   0.000000   1.000000   0.000000 )  
               a(3) = (   0.000000   0.000000   2.000000 )  

     reciprocal axes: (cart. coord. in units 2 pi/alat)
               b(1) = (  1.000000  0.000000  0.000000 )  
               b(2) = (  0.000000  1.000000  0.000000 )  
               b(3) = (  0.000000  0.000000  0.500000 )  


     PseudoPot. # 1 for Au read from file:
     /home/scc/andrejb/qe/pseudo/Au.pbe-nd-van.UPF
     MD5 check sum: 458681b50f36d87ef23c61b04bba420a
     Pseudo is Ultrasoft + core correction, Zval = 11.0
     Generated by new atomic code, or converted to UPF format
     Using radial grid of  985 points,  3 beta functions with: 
                l(1) =   1
                l(2) =   2
                l(3) =   2
     Q(r) pseudized with  8 coefficients,  rinner =    1.100   1.100   1.100
                                                       1.100   1.100

     PseudoPot. # 2 for H  read from file:
     /home/scc/andrejb/qe/pseudo/H.pbe-van_ak.UPF
     MD5 check sum: 403db7282739603aa925980fa9b8608d
     Pseudo is Ultrasoft, Zval =  1.0
     Generated by new atomic code, or converted to UPF format
     Using radial grid of  615 points,  1 beta functions with: 
                l(1) =   0
     Q(r) pseudized with  8 coefficients,  rinner =    0.800

     PseudoPot. # 3 for O  read from file:
     /home/scc/andrejb/qe/pseudo/O.pbe-van_ak.UPF
     MD5 check sum: 4b8c549914a63cae506c6ff22b5af4fe
     Pseudo is Ultrasoft, Zval =  6.0
     Generated by new atomic code, or converted to UPF format
     Using radial grid of  737 points,  4 beta functions with: 
                l(1) =   0
                l(2) =   0
                l(3) =   1
                l(4) =   1
     Q(r) pseudized with  8 coefficients,  rinner =    0.800   0.800   0.800


     atomic species   valence    mass     pseudopotential
        Au            11.00   196.96657     Au( 1.00)
        H              1.00     1.01000     H ( 1.00)
        O              6.00    16.00000     O ( 1.00)

     No symmetry found



   Cartesian axes

     site n.     atom                  positions (alat units)
         1           O   tau(   1) = (   0.1666051   0.1666105   0.9536641  )
         2           H   tau(   2) = (   0.1610146   0.1056232   0.9991580  )
         3           H   tau(   3) = (   0.1720135   0.2257614   1.0015217  )
         4           Au  tau(   4) = (   0.0000000   0.0000000   0.0000000  )
         5           Au  tau(   5) = (   0.3332217   0.0000000   0.0000000  )
         6           Au  tau(   6) = (   0.6664434   0.0000000   0.0000000  )
         7           Au  tau(   7) = (   0.1666109   0.1666109   0.0000000  )
         8           Au  tau(   8) = (   0.4998326   0.1666109   0.0000000  )
         9           Au  tau(   9) = (   0.8330542   0.1666109   0.0000000  )
        10           Au  tau(  10) = (   0.0000000   0.3332217   0.0000000  )
        11           Au  tau(  11) = (   0.3332217   0.3332217   0.0000000  )
        12           Au  tau(  12) = (   0.6664434   0.3332217   0.0000000  )
        13           Au  tau(  13) = (   0.1666109   0.4998326   0.0000000  )
        14           Au  tau(  14) = (   0.4998326   0.4998326   0.0000000  )
        15           Au  tau(  15) = (   0.8330542   0.4998326   0.0000000  )
        16           Au  tau(  16) = (   0.0000000   0.6664434   0.0000000  )
        17           Au  tau(  17) = (   0.3332217   0.6664434   0.0000000  )
        18           Au  tau(  18) = (   0.6664434   0.6664434   0.0000000  )
        19           Au  tau(  19) = (   0.1666109   0.8330542   0.0000000  )
        20           Au  tau(  20) = (   0.4998326   0.8330542   0.0000000  )
        21           Au  tau(  21) = (   0.8330542   0.8330542   0.0000000  )
        22           Au  tau(  22) = (   0.1666109   0.0000000   0.1666109  )
        23           Au  tau(  23) = (   0.4998326   0.0000000   0.1666109  )
        24           Au  tau(  24) = (   0.8330542   0.0000000   0.1666109  )
        25           Au  tau(  25) = (   0.0000000   0.1666109   0.1666109  )
        26           Au  tau(  26) = (   0.3332217   0.1666109   0.1666109  )
        27           Au  tau(  27) = (   0.6664434   0.1666109   0.1666109  )
        28           Au  tau(  28) = (   0.1666109   0.3332217   0.1666109  )
        29           Au  tau(  29) = (   0.4998326   0.3332217   0.1666109  )
        30           Au  tau(  30) = (   0.8330542   0.3332217   0.1666109  )
        31           Au  tau(  31) = (   0.0000000   0.4998326   0.1666109  )
        32           Au  tau(  32) = (   0.3332217   0.4998326   0.1666109  )
        33           Au  tau(  33) = (   0.6664434   0.4998326   0.1666109  )
        34           Au  tau(  34) = (   0.1666109   0.6664434   0.1666109  )
        35           Au  tau(  35) = (   0.4998326   0.6664434   0.1666109  )
        36           Au  tau(  36) = (   0.8330542   0.6664434   0.1666109  )
        37           Au  tau(  37) = (   0.0000000   0.8330542   0.1666109  )
        38           Au  tau(  38) = (   0.3332217   0.8330542   0.1666109  )
        39           Au  tau(  39) = (   0.6664434   0.8330542   0.1666109  )
        40           Au  tau(  40) = (  -0.0000182  -0.0000182   0.3335478  )
        41           Au  tau(  41) = (   0.3332215  -0.0000181   0.3335473  )
        42           Au  tau(  42) = (   0.6664447  -0.0000183   0.3335481  )
        43           Au  tau(  43) = (  -0.0000181   0.3332215   0.3335473  )
        44           Au  tau(  44) = (   0.3332215   0.3332215   0.3335468  )
        45           Au  tau(  45) = (   0.6664445   0.3332215   0.3335477  )
        46           Au  tau(  46) = (  -0.0000183   0.6664447   0.3335481  )
        47           Au  tau(  47) = (   0.3332215   0.6664445   0.3335477  )
        48           Au  tau(  48) = (   0.6664446   0.6664446   0.3335486  )
        49           Au  tau(  49) = (   0.1666097   0.1666097   0.3335483  )
        50           Au  tau(  50) = (   0.4998320   0.1666098   0.3335477  )
        51           Au  tau(  51) = (   0.8330732   0.1666096   0.3335480  )
        52           Au  tau(  52) = (   0.1666098   0.4998320   0.3335477  )
        53           Au  tau(  53) = (   0.4998322   0.4998322   0.3335470  )
        54           Au  tau(  54) = (   0.8330731   0.4998322   0.3335474  )
        55           Au  tau(  55) = (   0.1666096   0.8330732   0.3335480  )
        56           Au  tau(  56) = (   0.4998322   0.8330731   0.3335474  )
        57           Au  tau(  57) = (   0.8330731   0.8330731   0.3335478  )
        58           Au  tau(  58) = (   0.1666104  -0.0000111   0.4993095  )
        59           Au  tau(  59) = (   0.4998323  -0.0000112   0.4993099  )
        60           Au  tau(  60) = (   0.8330660  -0.0000111   0.4993009  )
        61           Au  tau(  61) = (  -0.0000111   0.1666104   0.4993095  )
        62           Au  tau(  62) = (   0.3332213   0.1666106   0.4993185  )
        63           Au  tau(  63) = (   0.6664437   0.1666106   0.4993187  )
        64           Au  tau(  64) = (   0.1666106   0.3332213   0.4993185  )
        65           Au  tau(  65) = (   0.4998324   0.3332216   0.4993185  )
        66           Au  tau(  66) = (   0.8330658   0.3332215   0.4993102  )
        67           Au  tau(  67) = (  -0.0000112   0.4998323   0.4993099  )
        68           Au  tau(  68) = (   0.3332216   0.4998324   0.4993185  )
        69           Au  tau(  69) = (   0.6664437   0.4998325   0.4993187  )
        70           Au  tau(  70) = (   0.1666106   0.6664437   0.4993187  )
        71           Au  tau(  71) = (   0.4998325   0.6664437   0.4993187  )
        72           Au  tau(  72) = (   0.8330658   0.6664438   0.4993102  )
        73           Au  tau(  73) = (  -0.0000111   0.8330660   0.4993009  )
        74           Au  tau(  74) = (   0.3332215   0.8330658   0.4993102  )
        75           Au  tau(  75) = (   0.6664438   0.8330658   0.4993102  )

     number of k points=     6  Marzari-Vanderbilt smearing, width (Ry)=  0.0200
                       cart. coord. in units 2pi/alat
        k(    1) = (   0.2500000   0.2500000   0.0833333), wk =   0.3333333
        k(    2) = (   0.2500000   0.2500000  -0.2500000), wk =   0.3333333
        k(    3) = (  -0.2500000  -0.2500000   0.0833333), wk =   0.3333333
        k(    4) = (  -0.2500000   0.2500000  -0.0833333), wk =   0.3333333
        k(    5) = (   0.2500000  -0.2500000  -0.0833333), wk =   0.3333333
        k(    6) = (  -0.2500000   0.2500000   0.2500000), wk =   0.3333333

     Dense  grid:  3792731 G-vectors     FFT dimensions: ( 160, 160, 320)

     Smooth grid:  1341081 G-vectors     FFT dimensions: ( 120, 120, 225)

     Largest allocated arrays     est. size (Mb)     dimensions
        Kohn-Sham Wavefunctions        38.58 Mb     (    5267,  480)
        NL pseudopotentials            76.03 Mb     (    5267,  946)
        Each V/rho on FFT grid          3.91 Mb     (  256000)
        Each G-vector array             0.90 Mb     (  118520)
        G-vector shells                 0.08 Mb     (   10286)
     Largest temporary arrays     est. size (Mb)     dimensions
        Auxiliary wavefunctions       154.31 Mb     (    5267, 1920)
        Each subspace H/S matrix       56.25 Mb     (    1920, 1920)
        Each <psi_i|beta_j> matrix      6.93 Mb     (     946,  480)
        Arrays for rho mixing          31.25 Mb     (  256000,    8)

     Initial potential from superposition of free atoms
     Check: negative starting charge=   -1.944523

     starting charge  799.16392, renormalised to  800.00000

     negative rho (up, down):  1.947E+00 0.000E+00
     Starting wfc are  654 randomized atomic wfcs

     total cpu time spent up to now is      176.4 secs

     Self-consistent Calculation

     iteration #  1     ecut=    50.00 Ry     beta=0.70
     Davidson diagonalization with overlap
     ethr =  1.00E-02,  avg # of iterations =  3.0

     Threshold (ethr) on eigenvalues was too large:
     Diagonalizing with lowered threshold

     Davidson diagonalization with overlap
     ethr =  5.02E-04,  avg # of iterations =  2.0

     negative rho (up, down):  1.932E+00 0.000E+00

     total cpu time spent up to now is      665.8 secs

     total energy              =   -7377.39573710 Ry
     Harris-Foulkes estimate   =   -7380.96448391 Ry
     estimated scf accuracy    <       4.52956291 Ry

     iteration #  2     ecut=    50.00 Ry     beta=0.70
     Davidson diagonalization with overlap
     ethr =  5.66E-04,  avg # of iterations = 11.0

     negative rho (up, down):  1.930E+00 0.000E+00

     total cpu time spent up to now is     1462.3 secs

     total energy              =   -7368.72429532 Ry
     Harris-Foulkes estimate   =   -7387.99182955 Ry
     estimated scf accuracy    <      99.13301174 Ry

     iteration #  3     ecut=    50.00 Ry     beta=0.70
     Davidson diagonalization with overlap
     ethr =  5.66E-04,  avg # of iterations =  6.0

     negative rho (up, down):  1.947E+00 0.000E+00

     total cpu time spent up to now is     1953.4 secs

     total energy              =   -7378.57430773 Ry
     Harris-Foulkes estimate   =   -7380.68486451 Ry
     estimated scf accuracy    <       8.35114985 Ry

     iteration #  4     ecut=    50.00 Ry     beta=0.70
     Davidson diagonalization with overlap
     ethr =  5.66E-04,  avg # of iterations =  6.2

     negative rho (up, down):  1.957E+00 0.000E+00

     total cpu time spent up to now is     2208.9 secs

     total energy              =   -7379.85791132 Ry
     Harris-Foulkes estimate   =   -7380.20184304 Ry
     estimated scf accuracy    <       0.96043603 Ry

     iteration #  5     ecut=    50.00 Ry     beta=0.70
     Davidson diagonalization with overlap
     ethr =  1.20E-04,  avg # of iterations =  8.2

     negative rho (up, down):  1.960E+00 0.000E+00

     total cpu time spent up to now is     2543.8 secs

     total energy              =   -7379.73574454 Ry
     Harris-Foulkes estimate   =   -7380.23158950 Ry
     estimated scf accuracy    <       4.04374410 Ry

     iteration #  6     ecut=    50.00 Ry     beta=0.70
     Davidson diagonalization with overlap
     ethr =  1.20E-04,  avg # of iterations =  7.0

     negative rho (up, down):  1.966E+00 0.000E+00

     total cpu time spent up to now is     2829.0 secs

     total energy              =   -7379.97930883 Ry
     Harris-Foulkes estimate   =   -7380.02494485 Ry
     estimated scf accuracy    <       0.24267055 Ry

     iteration #  7     ecut=    50.00 Ry     beta=0.70
     Davidson diagonalization with overlap
     ethr =  3.03E-05,  avg # of iterations =  6.3

     negative rho (up, down):  1.967E+00 0.000E+00

     total cpu time spent up to now is     3096.5 secs

     total energy              =   -7379.97804305 Ry
     Harris-Foulkes estimate   =   -7380.00909199 Ry
     estimated scf accuracy    <       0.14465055 Ry

     iteration #  8     ecut=    50.00 Ry     beta=0.70
     Davidson diagonalization with overlap
     ethr =  1.81E-05,  avg # of iterations =  5.3

     negative rho (up, down):  1.969E+00 0.000E+00

     total cpu time spent up to now is     3350.8 secs

     total energy              =   -7379.98029990 Ry
     Harris-Foulkes estimate   =   -7379.99828620 Ry
     estimated scf accuracy    <       0.07532967 Ry

     iteration #  9     ecut=    50.00 Ry     beta=0.70
     Davidson diagonalization with overlap
     ethr =  9.42E-06,  avg # of iterations = 10.8

     negative rho (up, down):  1.969E+00 0.000E+00

     total cpu time spent up to now is     3673.9 secs

     total energy              =   -7379.97841356 Ry
     Harris-Foulkes estimate   =   -7379.98954730 Ry
     estimated scf accuracy    <       0.03845635 Ry

     iteration # 10     ecut=    50.00 Ry     beta=0.70
     Davidson diagonalization with overlap
     ethr =  4.81E-06,  avg # of iterations = 11.8

     negative rho (up, down):  1.971E+00 0.000E+00

     total cpu time spent up to now is     3990.2 secs

     total energy              =   -7379.97823378 Ry
     Harris-Foulkes estimate   =   -7379.98342732 Ry
     estimated scf accuracy    <       0.01399259 Ry

     iteration # 11     ecut=    50.00 Ry     beta=0.70
     Davidson diagonalization with overlap
     ethr =  1.75E-06,  avg # of iterations = 10.0

     negative rho (up, down):  1.971E+00 0.000E+00

     total cpu time spent up to now is     4305.5 secs

     total energy              =   -7379.97856920 Ry
     Harris-Foulkes estimate   =   -7379.98030270 Ry
     estimated scf accuracy    <       0.00605768 Ry

     iteration # 12     ecut=    50.00 Ry     beta=0.70
     Davidson diagonalization with overlap
     ethr =  7.57E-07,  avg # of iterations =  3.8

     negative rho (up, down):  1.972E+00 0.000E+00

     total cpu time spent up to now is     4525.0 secs

     total energy              =   -7379.97768836 Ry
     Harris-Foulkes estimate   =   -7379.97922742 Ry
     estimated scf accuracy    <       0.00207262 Ry

     iteration # 13     ecut=    50.00 Ry     beta=0.70
     Davidson diagonalization with overlap
     ethr =  2.59E-07,  avg # of iterations = 14.2

     negative rho (up, down):  1.972E+00 0.000E+00

     total cpu time spent up to now is     5064.3 secs

     total energy              =   -7379.97638571 Ry
     Harris-Foulkes estimate   =   -7379.98025257 Ry
     estimated scf accuracy    <       0.02272629 Ry

     iteration # 14     ecut=    50.00 Ry     beta=0.70
     Davidson diagonalization with overlap
     ethr =  2.59E-07,  avg # of iterations =  3.0

     negative rho (up, down):  1.971E+00 0.000E+00

     total cpu time spent up to now is     5356.6 secs

     total energy              =   -7379.97823125 Ry
     Harris-Foulkes estimate   =   -7379.97834012 Ry
     estimated scf accuracy    <       0.00027351 Ry

     iteration # 15     ecut=    50.00 Ry     beta=0.70
     Davidson diagonalization with overlap
     ethr =  3.42E-08,  avg # of iterations =  3.0

     negative rho (up, down):  1.971E+00 0.000E+00

     total cpu time spent up to now is     5666.6 secs

     total energy              =   -7379.97821939 Ry
     Harris-Foulkes estimate   =   -7379.97837752 Ry
     estimated scf accuracy    <       0.00066458 Ry

     iteration # 16     ecut=    50.00 Ry     beta=0.70
     Davidson diagonalization with overlap
     ethr =  3.42E-08,  avg # of iterations =  2.0

     negative rho (up, down):  1.971E+00 0.000E+00

     total cpu time spent up to now is     5904.7 secs

     total energy              =   -7379.97827702 Ry
     Harris-Foulkes estimate   =   -7379.97831891 Ry
     estimated scf accuracy    <       0.00023185 Ry

     iteration # 17     ecut=    50.00 Ry     beta=0.70
     Davidson diagonalization with overlap
     ethr =  2.90E-08,  avg # of iterations =  1.0

     negative rho (up, down):  1.971E+00 0.000E+00

     total cpu time spent up to now is     6104.4 secs

     total energy              =   -7379.97829149 Ry
     Harris-Foulkes estimate   =   -7379.97831751 Ry
     estimated scf accuracy    <       0.00018003 Ry

     iteration # 18     ecut=    50.00 Ry     beta=0.70
     Davidson diagonalization with overlap
     ethr =  2.25E-08,  avg # of iterations =  1.0

     negative rho (up, down):  1.971E+00 0.000E+00

     total cpu time spent up to now is     6306.2 secs

     total energy              =   -7379.97830356 Ry
     Harris-Foulkes estimate   =   -7379.97830511 Ry
     estimated scf accuracy    <       0.00000392 Ry

     iteration # 19     ecut=    50.00 Ry     beta=0.70
     Davidson diagonalization with overlap
     ethr =  4.90E-10,  avg # of iterations =  3.0

     negative rho (up, down):  1.971E+00 0.000E+00

     total cpu time spent up to now is     6587.5 secs

     total energy              =   -7379.97830423 Ry
     Harris-Foulkes estimate   =   -7379.97830511 Ry
     estimated scf accuracy    <       0.00000272 Ry

     iteration # 20     ecut=    50.00 Ry     beta=0.70
     Davidson diagonalization with overlap
     ethr =  3.40E-10,  avg # of iterations =  2.0

     negative rho (up, down):  1.971E+00 0.000E+00

     total cpu time spent up to now is     6808.0 secs

     total energy              =   -7379.97830452 Ry
     Harris-Foulkes estimate   =   -7379.97830491 Ry
     estimated scf accuracy    <       0.00000125 Ry

     iteration # 21     ecut=    50.00 Ry     beta=0.70
     Davidson diagonalization with overlap
     ethr =  1.57E-10,  avg # of iterations =  2.0

     negative rho (up, down):  1.971E+00 0.000E+00

     total cpu time spent up to now is     7024.9 secs

     total energy              =   -7379.97830460 Ry
     Harris-Foulkes estimate   =   -7379.97830493 Ry
     estimated scf accuracy    <       0.00000152 Ry

     iteration # 22     ecut=    50.00 Ry     beta=0.70
     Davidson diagonalization with overlap
     ethr =  1.57E-10,  avg # of iterations =  2.0

     negative rho (up, down):  1.971E+00 0.000E+00

     total cpu time spent up to now is     7240.4 secs

     total energy              =   -7379.97830472 Ry
     Harris-Foulkes estimate   =   -7379.97830481 Ry
     estimated scf accuracy    <       0.00000042 Ry

     iteration # 23     ecut=    50.00 Ry     beta=0.70
     Davidson diagonalization with overlap
     ethr =  5.28E-11,  avg # of iterations =  2.0

     negative rho (up, down):  1.971E+00 0.000E+00

     total cpu time spent up to now is     7462.3 secs

     total energy              =   -7379.97830472 Ry
     Harris-Foulkes estimate   =   -7379.97830481 Ry
     estimated scf accuracy    <       0.00000034 Ry

     iteration # 24     ecut=    50.00 Ry     beta=0.70
     Davidson diagonalization with overlap
     ethr =  4.30E-11,  avg # of iterations =  2.0

     negative rho (up, down):  1.971E+00 0.000E+00

     total cpu time spent up to now is     7679.1 secs

     total energy              =   -7379.97830474 Ry
     Harris-Foulkes estimate   =   -7379.97830481 Ry
     estimated scf accuracy    <       0.00000043 Ry

     iteration # 25     ecut=    50.00 Ry     beta=0.70
     Davidson diagonalization with overlap
     ethr =  4.30E-11,  avg # of iterations =  2.0

     negative rho (up, down):  1.971E+00 0.000E+00

     total cpu time spent up to now is     7901.4 secs

     total energy              =   -7379.97830477 Ry
     Harris-Foulkes estimate   =   -7379.97830478 Ry
     estimated scf accuracy    <       0.00000005 Ry

     iteration # 26     ecut=    50.00 Ry     beta=0.70
     Davidson diagonalization with overlap
     ethr =  6.13E-12,  avg # of iterations =  2.0

     negative rho (up, down):  1.971E+00 0.000E+00

     total cpu time spent up to now is     8116.3 secs

     total energy              =   -7379.97830478 Ry
     Harris-Foulkes estimate   =   -7379.97830478 Ry
     estimated scf accuracy    <       0.00000002 Ry

     iteration # 27     ecut=    50.00 Ry     beta=0.70
     Davidson diagonalization with overlap
     ethr =  2.64E-12,  avg # of iterations =  1.0

     negative rho (up, down):  1.971E+00 0.000E+00

     total cpu time spent up to now is     8317.9 secs

     End of self-consistent calculation

          k = 0.2500 0.2500 0.0833 (167653 PWs)   bands (ev):

   -19.1773  -6.9905  -6.7898  -6.2596  -6.2594  -5.8213  -5.4178  -5.3192
    -5.3190  -5.0974  -5.0973  -5.0004  -5.0002  -4.8669  -4.8592  -4.7498
    -4.6612  -4.6573  -4.6361  -4.6359  -4.4549  -4.4537  -4.4536  -4.4269
    -4.4229  -4.4223  -4.4187  -4.3652  -4.3650  -4.3624  -4.3623  -4.2987
    -4.2702  -4.2701  -4.2135  -4.2102  -4.2089  -4.1729  -4.1726  -4.1588
    -4.1544  -4.1356  -4.1356  -4.0981  -4.0659  -4.0658  -4.0634  -4.0602
    -4.0602  -4.0298  -3.9995  -3.9993  -3.9699  -3.9697  -3.9658  -3.9658
    -3.9636  -3.9577  -3.9256  -3.9252  -3.8652  -3.8651  -3.8329  -3.8064
    -3.7998  -3.7962  -3.7958  -3.7736  -3.7736  -3.7617  -3.7114  -3.7114
    -3.7054  -3.7053  -3.6201  -3.6198  -3.5978  -3.5976  -3.5631  -3.5599
    -3.5480  -3.5218  -3.5218  -3.4775  -3.4774  -3.4749  -3.4748  -3.4502
    -3.4499  -3.3695  -3.3694  -3.3676  -3.3541  -3.3382  -3.3356  -3.3227
    -3.3226  -3.3154  -3.3153  -3.2726  -3.2726  -3.2496  -3.2494  -3.2132
    -3.2130  -3.1867  -3.1866  -3.1656  -3.1655  -3.1194  -3.1192  -3.0867
    -3.0592  -3.0587  -3.0582  -3.0576  -3.0537  -3.0536  -3.0259  -3.0174
    -2.9783  -2.9783  -2.9571  -2.9336  -2.9306  -2.9305  -2.9240  -2.9237
    -2.9196  -2.9196  -2.8844  -2.8834  -2.8834  -2.8779  -2.8779  -2.8729
    -2.8178  -2.8118  -2.8079  -2.8077  -2.7856  -2.7855  -2.7803  -2.6917
    -2.6811  -2.6809  -2.6715  -2.6712  -2.6653  -2.6641  -2.6631  -2.6554
    -2.6553  -2.6446  -2.6372  -2.6341  -2.6339  -2.6295  -2.6196  -2.6141
    -2.6121  -2.5899  -2.5793  -2.5791  -2.5633  -2.5633  -2.5463  -2.5462
    -2.5375  -2.5374  -2.5168  -2.5041  -2.5041  -2.4987  -2.4986  -2.4648
    -2.4624  -2.4624  -2.4042  -2.4010  -2.3861  -2.3860  -2.3754  -2.3709
    -2.3478  -2.3476  -2.3435  -2.3308  -2.3306  -2.3191  -2.3188  -2.3022
    -2.3019  -2.2751  -2.2751  -2.2649  -2.2647  -2.2550  -2.2548  -2.2376
    -2.2247  -2.2040  -2.1350  -2.1337  -2.1143  -2.1142  -2.1024  -2.1023
    -2.0523  -2.0520  -2.0369  -2.0174  -2.0049  -2.0048  -1.9867  -1.9683
    -1.9682  -1.9551  -1.9482  -1.9162  -1.9157  -1.9144  -1.9075  -1.9075
    -1.8997  -1.8996  -1.8791  -1.8727  -1.8622  -1.8621  -1.8616  -1.8616
    -1.8605  -1.8601  -1.8464  -1.8264  -1.8264  -1.8230  -1.8176  -1.8047
    -1.8045  -1.8003  -1.8001  -1.7944  -1.7924  -1.7583  -1.7580  -1.7134
    -1.6943  -1.6940  -1.6484  -1.6483  -1.6482  -1.6375  -1.6372  -1.6236
    -1.6232  -1.6159  -1.6157  -1.6054  -1.6052  -1.5849  -1.5848  -1.5479
    -1.5477  -1.5304  -1.5081  -1.5080  -1.4686  -1.4684  -1.4181  -1.4180
    -1.3970  -1.3723  -1.3710  -1.3705  -1.3649  -1.3641  -1.3443  -1.3441
    -1.3433  -1.3430  -1.3413  -1.3409  -1.3404  -1.3392  -1.3377  -1.3109
    -1.3109  -1.2779  -1.2765  -1.2765  -1.2549  -1.2548  -1.2499  -1.2497
    -1.2467  -1.2362  -1.2085  -1.2083  -1.1840  -1.1828  -1.1822  -1.1624
    -1.1511  -1.1509  -1.1448  -1.1217  -1.1215  -1.1147  -1.1146  -1.0761
    -1.0758  -1.0641  -1.0639  -1.0631  -1.0630  -1.0369  -1.0367  -1.0226
    -1.0153  -1.0152  -1.0034  -1.0031  -1.0015  -1.0013  -0.9903  -0.9802
    -0.9792  -0.9727  -0.9726  -0.9657  -0.9616  -0.9615  -0.9453  -0.9037
    -0.9027  -0.9009  -0.8987  -0.8958  -0.8958  -0.8665  -0.8664  -0.8526
    -0.8351  -0.8347  -0.8265  -0.8264  -0.8182  -0.8110  -0.8098  -0.7733
    -0.7731  -0.7618  -0.7618  -0.7415  -0.7414  -0.7260  -0.7019  -0.6938
    -0.6761  -0.6759  -0.6383  -0.6381  -0.6352  -0.6349  -0.6341  -0.6281
    -0.6272  -0.6270  -0.6231  -0.6204  -0.5873  -0.5872  -0.5860  -0.5859
    -0.5844  -0.5840  -0.5704  -0.5702  -0.5420  -0.2796  -0.2737  -0.2279
    -0.2270  -0.1964  -0.1378   0.0148   0.0150   0.0456   0.3303   0.3304
     0.6709   0.6718   0.7148   0.7149   0.7647   0.7652   0.9244   0.9247
     1.0529   1.0540   1.1680   1.6634   1.7059   1.7091   1.7464   1.7467
     1.8835   1.8855   1.9400   1.9403   2.1226   2.1228   2.4080   2.4342
     2.4354   2.4557   2.8903   2.8920   2.9134   2.9151   2.9306   2.9309
     2.9964   2.9970   3.1549   3.2748   3.2757   3.4596   3.4703   3.5714
     3.6433   3.6436   3.9432   3.9438   4.0003   4.0016   4.0017   4.1484
     4.1490   4.1695   4.1715   4.4441   4.4460   4.4824   4.4826   4.5958
     4.6013   4.6632   4.6650   4.9437   5.0374   5.5456   5.5463   5.6236
     5.6275   5.7529   5.7534   5.8251   5.8252   5.8310   5.8419   5.8421
     5.9376   5.9542   5.9828   6.1248   6.2411   6.2422   6.2527   6.2534
     6.2587   6.2682   6.2766   6.3262   6.4287   6.4310   6.5031   6.5539

          k = 0.2500 0.2500-0.2500 (167588 PWs)   bands (ev):

   -19.1773  -6.9905  -6.7898  -6.2596  -6.2594  -5.8213  -5.4178  -5.3192
    -5.3190  -5.0974  -5.0973  -5.0004  -5.0002  -4.8669  -4.8592  -4.7498
    -4.6612  -4.6573  -4.6361  -4.6359  -4.4549  -4.4537  -4.4536  -4.4269
    -4.4229  -4.4223  -4.4187  -4.3652  -4.3650  -4.3624  -4.3623  -4.2987
    -4.2702  -4.2701  -4.2135  -4.2102  -4.2089  -4.1729  -4.1726  -4.1588
    -4.1544  -4.1356  -4.1356  -4.0981  -4.0659  -4.0658  -4.0634  -4.0602
    -4.0602  -4.0298  -3.9995  -3.9993  -3.9699  -3.9697  -3.9658  -3.9658
    -3.9636  -3.9578  -3.9256  -3.9252  -3.8652  -3.8651  -3.8329  -3.8064
    -3.7998  -3.7962  -3.7958  -3.7736  -3.7736  -3.7617  -3.7114  -3.7114
    -3.7054  -3.7053  -3.6201  -3.6198  -3.5978  -3.5976  -3.5631  -3.5599
    -3.5480  -3.5218  -3.5218  -3.4775  -3.4774  -3.4749  -3.4748  -3.4502
    -3.4499  -3.3695  -3.3694  -3.3676  -3.3541  -3.3382  -3.3356  -3.3227
    -3.3226  -3.3154  -3.3153  -3.2725  -3.2725  -3.2496  -3.2494  -3.2132
    -3.2130  -3.1867  -3.1866  -3.1656  -3.1655  -3.1194  -3.1192  -3.0867
    -3.0592  -3.0587  -3.0582  -3.0575  -3.0537  -3.0536  -3.0259  -3.0174
    -2.9783  -2.9782  -2.9571  -2.9336  -2.9306  -2.9305  -2.9240  -2.9237
    -2.9196  -2.9196  -2.8844  -2.8834  -2.8834  -2.8779  -2.8779  -2.8729
    -2.8178  -2.8118  -2.8079  -2.8077  -2.7856  -2.7855  -2.7803  -2.6917
    -2.6811  -2.6809  -2.6715  -2.6712  -2.6653  -2.6641  -2.6630  -2.6553
    -2.6553  -2.6446  -2.6372  -2.6341  -2.6339  -2.6295  -2.6196  -2.6141
    -2.6121  -2.5899  -2.5793  -2.5791  -2.5633  -2.5633  -2.5463  -2.5462
    -2.5375  -2.5374  -2.5168  -2.5041  -2.5041  -2.4987  -2.4986  -2.4648
    -2.4624  -2.4624  -2.4042  -2.4010  -2.3861  -2.3859  -2.3754  -2.3709
    -2.3478  -2.3476  -2.3435  -2.3308  -2.3306  -2.3191  -2.3188  -2.3022
    -2.3019  -2.2751  -2.2751  -2.2649  -2.2647  -2.2550  -2.2548  -2.2376
    -2.2247  -2.2040  -2.1350  -2.1337  -2.1143  -2.1142  -2.1024  -2.1023
    -2.0523  -2.0520  -2.0369  -2.0174  -2.0049  -2.0048  -1.9867  -1.9683
    -1.9682  -1.9551  -1.9482  -1.9162  -1.9157  -1.9144  -1.9075  -1.9075
    -1.8997  -1.8996  -1.8791  -1.8727  -1.8622  -1.8621  -1.8616  -1.8616
    -1.8605  -1.8601  -1.8465  -1.8264  -1.8264  -1.8230  -1.8176  -1.8047
    -1.8045  -1.8003  -1.8001  -1.7944  -1.7924  -1.7583  -1.7580  -1.7134
    -1.6943  -1.6940  -1.6484  -1.6483  -1.6482  -1.6375  -1.6372  -1.6236
    -1.6232  -1.6159  -1.6157  -1.6054  -1.6052  -1.5849  -1.5848  -1.5479
    -1.5477  -1.5304  -1.5081  -1.5080  -1.4686  -1.4684  -1.4181  -1.4180
    -1.3970  -1.3723  -1.3710  -1.3705  -1.3649  -1.3641  -1.3443  -1.3441
    -1.3433  -1.3430  -1.3413  -1.3409  -1.3403  -1.3392  -1.3377  -1.3109
    -1.3109  -1.2779  -1.2766  -1.2765  -1.2549  -1.2548  -1.2499  -1.2497
    -1.2467  -1.2362  -1.2085  -1.2083  -1.1840  -1.1828  -1.1822  -1.1624
    -1.1511  -1.1508  -1.1448  -1.1217  -1.1215  -1.1147  -1.1146  -1.0761
    -1.0758  -1.0641  -1.0639  -1.0631  -1.0630  -1.0369  -1.0367  -1.0226
    -1.0153  -1.0152  -1.0034  -1.0030  -1.0015  -1.0013  -0.9903  -0.9802
    -0.9792  -0.9727  -0.9726  -0.9657  -0.9616  -0.9615  -0.9453  -0.9037
    -0.9027  -0.9009  -0.8987  -0.8959  -0.8958  -0.8665  -0.8664  -0.8526
    -0.8351  -0.8347  -0.8265  -0.8264  -0.8182  -0.8110  -0.8098  -0.7733
    -0.7731  -0.7618  -0.7618  -0.7415  -0.7414  -0.7260  -0.7019  -0.6938
    -0.6761  -0.6759  -0.6383  -0.6381  -0.6352  -0.6350  -0.6341  -0.6281
    -0.6272  -0.6270  -0.6231  -0.6204  -0.5873  -0.5872  -0.5860  -0.5859
    -0.5844  -0.5840  -0.5704  -0.5702  -0.5419  -0.2796  -0.2737  -0.2279
    -0.2270  -0.1964  -0.1378   0.0148   0.0150   0.0456   0.3303   0.3304
     0.6709   0.6718   0.7148   0.7149   0.7647   0.7652   0.9244   0.9247
     1.0529   1.0540   1.1680   1.6634   1.7059   1.7091   1.7464   1.7467
     1.8835   1.8855   1.9400   1.9403   2.1226   2.1228   2.4080   2.4342
     2.4354   2.4557   2.8903   2.8920   2.9134   2.9151   2.9306   2.9309
     2.9964   2.9970   3.1549   3.2748   3.2757   3.4596   3.4703   3.5714
     3.6433   3.6436   3.9432   3.9438   4.0003   4.0016   4.0017   4.1484
     4.1490   4.1696   4.1716   4.4441   4.4460   4.4824   4.4826   4.5958
     4.6013   4.6632   4.6650   4.9442   5.0338   5.5456   5.5463   5.6239
     5.6274   5.7529   5.7534   5.8067   5.8251   5.8255   5.8419   5.8421
     5.9410   5.9542   6.0462   6.1078   6.2411   6.2422   6.2527   6.2534
     6.2587   6.2683   6.3007   6.3731   6.4294   6.4345   6.5103   6.5521

          k =-0.2500-0.2500 0.0833 (167653 PWs)   bands (ev):

   -19.1773  -6.9905  -6.7898  -6.2596  -6.2594  -5.8213  -5.4178  -5.3192
    -5.3190  -5.0974  -5.0973  -5.0004  -5.0002  -4.8669  -4.8592  -4.7498
    -4.6612  -4.6573  -4.6361  -4.6359  -4.4549  -4.4537  -4.4536  -4.4269
    -4.4229  -4.4223  -4.4187  -4.3652  -4.3650  -4.3624  -4.3623  -4.2987
    -4.2702  -4.2701  -4.2135  -4.2102  -4.2089  -4.1729  -4.1726  -4.1588
    -4.1544  -4.1356  -4.1356  -4.0981  -4.0659  -4.0658  -4.0634  -4.0602
    -4.0602  -4.0298  -3.9995  -3.9993  -3.9699  -3.9697  -3.9658  -3.9658
    -3.9636  -3.9577  -3.9256  -3.9252  -3.8652  -3.8651  -3.8329  -3.8064
    -3.7998  -3.7962  -3.7958  -3.7736  -3.7736  -3.7617  -3.7114  -3.7114
    -3.7054  -3.7053  -3.6201  -3.6198  -3.5978  -3.5976  -3.5631  -3.5599
    -3.5480  -3.5218  -3.5218  -3.4775  -3.4774  -3.4749  -3.4748  -3.4502
    -3.4499  -3.3695  -3.3694  -3.3676  -3.3541  -3.3382  -3.3356  -3.3227
    -3.3226  -3.3154  -3.3153  -3.2726  -3.2726  -3.2496  -3.2494  -3.2132
    -3.2130  -3.1867  -3.1866  -3.1656  -3.1655  -3.1194  -3.1192  -3.0867
    -3.0592  -3.0587  -3.0582  -3.0576  -3.0537  -3.0536  -3.0259  -3.0174
    -2.9783  -2.9783  -2.9571  -2.9336  -2.9306  -2.9305  -2.9240  -2.9237
    -2.9196  -2.9196  -2.8844  -2.8834  -2.8834  -2.8779  -2.8779  -2.8729
    -2.8178  -2.8118  -2.8079  -2.8077  -2.7856  -2.7855  -2.7803  -2.6917
    -2.6811  -2.6809  -2.6715  -2.6712  -2.6653  -2.6641  -2.6631  -2.6554
    -2.6553  -2.6446  -2.6372  -2.6341  -2.6339  -2.6295  -2.6196  -2.6141
    -2.6121  -2.5899  -2.5793  -2.5791  -2.5633  -2.5633  -2.5463  -2.5462
    -2.5375  -2.5374  -2.5168  -2.5041  -2.5041  -2.4987  -2.4986  -2.4648
    -2.4624  -2.4624  -2.4042  -2.4010  -2.3861  -2.3860  -2.3754  -2.3709
    -2.3478  -2.3476  -2.3435  -2.3308  -2.3306  -2.3191  -2.3188  -2.3022
    -2.3019  -2.2751  -2.2751  -2.2649  -2.2647  -2.2550  -2.2548  -2.2376
    -2.2247  -2.2040  -2.1350  -2.1337  -2.1143  -2.1142  -2.1024  -2.1023
    -2.0523  -2.0520  -2.0369  -2.0174  -2.0049  -2.0048  -1.9867  -1.9683
    -1.9682  -1.9551  -1.9482  -1.9162  -1.9157  -1.9144  -1.9075  -1.9075
    -1.8997  -1.8996  -1.8791  -1.8727  -1.8622  -1.8621  -1.8616  -1.8616
    -1.8605  -1.8601  -1.8464  -1.8264  -1.8264  -1.8230  -1.8176  -1.8047
    -1.8045  -1.8003  -1.8001  -1.7944  -1.7924  -1.7583  -1.7580  -1.7134
    -1.6943  -1.6940  -1.6484  -1.6483  -1.6482  -1.6375  -1.6372  -1.6236
    -1.6232  -1.6159  -1.6157  -1.6054  -1.6052  -1.5849  -1.5848  -1.5479
    -1.5477  -1.5304  -1.5081  -1.5080  -1.4686  -1.4684  -1.4181  -1.4180
    -1.3970  -1.3723  -1.3710  -1.3705  -1.3649  -1.3641  -1.3443  -1.3441
    -1.3433  -1.3430  -1.3413  -1.3409  -1.3404  -1.3392  -1.3377  -1.3109
    -1.3109  -1.2779  -1.2765  -1.2765  -1.2549  -1.2548  -1.2499  -1.2497
    -1.2467  -1.2362  -1.2085  -1.2083  -1.1840  -1.1828  -1.1822  -1.1624
    -1.1511  -1.1509  -1.1448  -1.1217  -1.1215  -1.1147  -1.1146  -1.0761
    -1.0758  -1.0641  -1.0639  -1.0631  -1.0630  -1.0369  -1.0367  -1.0226
    -1.0153  -1.0152  -1.0034  -1.0031  -1.0015  -1.0013  -0.9903  -0.9802
    -0.9792  -0.9727  -0.9726  -0.9657  -0.9616  -0.9615  -0.9453  -0.9037
    -0.9027  -0.9009  -0.8987  -0.8958  -0.8958  -0.8665  -0.8664  -0.8526
    -0.8351  -0.8347  -0.8265  -0.8264  -0.8182  -0.8110  -0.8098  -0.7733
    -0.7731  -0.7618  -0.7618  -0.7415  -0.7414  -0.7260  -0.7019  -0.6938
    -0.6761  -0.6759  -0.6383  -0.6381  -0.6352  -0.6349  -0.6341  -0.6281
    -0.6272  -0.6270  -0.6231  -0.6204  -0.5873  -0.5872  -0.5860  -0.5859
    -0.5844  -0.5840  -0.5704  -0.5702  -0.5420  -0.2796  -0.2737  -0.2279
    -0.2270  -0.1964  -0.1378   0.0148   0.0150   0.0456   0.3303   0.3304
     0.6709   0.6718   0.7148   0.7149   0.7647   0.7652   0.9244   0.9247
     1.0529   1.0540   1.1680   1.6634   1.7059   1.7091   1.7464   1.7467
     1.8835   1.8855   1.9400   1.9403   2.1226   2.1228   2.4080   2.4342
     2.4354   2.4557   2.8903   2.8920   2.9134   2.9151   2.9306   2.9309
     2.9964   2.9970   3.1549   3.2748   3.2757   3.4596   3.4703   3.5714
     3.6433   3.6436   3.9432   3.9438   4.0003   4.0016   4.0017   4.1484
     4.1490   4.1695   4.1715   4.4441   4.4460   4.4824   4.4826   4.5958
     4.6013   4.6632   4.6650   4.9437   5.0374   5.5456   5.5463   5.6236
     5.6275   5.7529   5.7534   5.8250   5.8252   5.8303   5.8419   5.8421
     5.9380   5.9542   5.9841   6.1243   6.2411   6.2422   6.2527   6.2534
     6.2587   6.2682   6.2763   6.3265   6.4284   6.4311   6.5008   6.5545

          k =-0.2500 0.2500-0.0833 (167653 PWs)   bands (ev):

   -19.1773  -6.9905  -6.7898  -6.2596  -6.2594  -5.8213  -5.4178  -5.3192
    -5.3190  -5.0974  -5.0973  -5.0005  -5.0001  -4.8669  -4.8592  -4.7498
    -4.6612  -4.6573  -4.6360  -4.6360  -4.4549  -4.4537  -4.4536  -4.4269
    -4.4228  -4.4223  -4.4187  -4.3652  -4.3650  -4.3624  -4.3623  -4.2987
    -4.2702  -4.2701  -4.2135  -4.2101  -4.2089  -4.1729  -4.1727  -4.1588
    -4.1544  -4.1356  -4.1356  -4.0981  -4.0659  -4.0657  -4.0634  -4.0602
    -4.0602  -4.0298  -3.9995  -3.9993  -3.9699  -3.9698  -3.9658  -3.9658
    -3.9636  -3.9577  -3.9256  -3.9252  -3.8653  -3.8650  -3.8329  -3.8064
    -3.7998  -3.7962  -3.7958  -3.7736  -3.7735  -3.7617  -3.7114  -3.7114
    -3.7054  -3.7053  -3.6200  -3.6198  -3.5978  -3.5975  -3.5631  -3.5599
    -3.5480  -3.5218  -3.5218  -3.4775  -3.4774  -3.4749  -3.4748  -3.4502
    -3.4500  -3.3695  -3.3694  -3.3676  -3.3541  -3.3382  -3.3356  -3.3227
    -3.3226  -3.3154  -3.3153  -3.2726  -3.2726  -3.2496  -3.2494  -3.2132
    -3.2130  -3.1867  -3.1866  -3.1656  -3.1655  -3.1193  -3.1193  -3.0867
    -3.0592  -3.0587  -3.0582  -3.0575  -3.0537  -3.0536  -3.0259  -3.0174
    -2.9783  -2.9783  -2.9571  -2.9336  -2.9306  -2.9305  -2.9239  -2.9238
    -2.9196  -2.9195  -2.8844  -2.8834  -2.8834  -2.8780  -2.8779  -2.8729
    -2.8178  -2.8118  -2.8079  -2.8077  -2.7856  -2.7855  -2.7803  -2.6917
    -2.6811  -2.6809  -2.6714  -2.6713  -2.6654  -2.6639  -2.6632  -2.6554
    -2.6553  -2.6446  -2.6372  -2.6341  -2.6339  -2.6295  -2.6196  -2.6141
    -2.6121  -2.5899  -2.5793  -2.5791  -2.5633  -2.5633  -2.5463  -2.5462
    -2.5375  -2.5374  -2.5168  -2.5041  -2.5041  -2.4988  -2.4986  -2.4648
    -2.4624  -2.4624  -2.4042  -2.4010  -2.3860  -2.3860  -2.3754  -2.3709
    -2.3478  -2.3476  -2.3435  -2.3308  -2.3306  -2.3191  -2.3188  -2.3023
    -2.3019  -2.2751  -2.2751  -2.2649  -2.2647  -2.2550  -2.2548  -2.2376
    -2.2247  -2.2040  -2.1350  -2.1337  -2.1143  -2.1142  -2.1024  -2.1023
    -2.0523  -2.0520  -2.0369  -2.0174  -2.0049  -2.0048  -1.9867  -1.9683
    -1.9682  -1.9551  -1.9482  -1.9162  -1.9157  -1.9144  -1.9075  -1.9074
    -1.8997  -1.8996  -1.8790  -1.8728  -1.8622  -1.8621  -1.8616  -1.8616
    -1.8605  -1.8601  -1.8464  -1.8264  -1.8264  -1.8230  -1.8176  -1.8047
    -1.8045  -1.8003  -1.8001  -1.7944  -1.7924  -1.7583  -1.7580  -1.7134
    -1.6942  -1.6941  -1.6484  -1.6483  -1.6482  -1.6375  -1.6372  -1.6236
    -1.6232  -1.6160  -1.6157  -1.6054  -1.6052  -1.5849  -1.5848  -1.5479
    -1.5477  -1.5304  -1.5081  -1.5080  -1.4686  -1.4684  -1.4181  -1.4180
    -1.3970  -1.3723  -1.3711  -1.3705  -1.3649  -1.3641  -1.3444  -1.3441
    -1.3433  -1.3430  -1.3413  -1.3409  -1.3403  -1.3392  -1.3377  -1.3109
    -1.3109  -1.2779  -1.2766  -1.2765  -1.2549  -1.2548  -1.2499  -1.2497
    -1.2467  -1.2362  -1.2085  -1.2083  -1.1840  -1.1828  -1.1822  -1.1624
    -1.1511  -1.1508  -1.1448  -1.1217  -1.1215  -1.1147  -1.1146  -1.0761
    -1.0758  -1.0641  -1.0639  -1.0631  -1.0630  -1.0369  -1.0367  -1.0226
    -1.0153  -1.0152  -1.0034  -1.0030  -1.0015  -1.0013  -0.9903  -0.9802
    -0.9792  -0.9727  -0.9726  -0.9657  -0.9616  -0.9615  -0.9453  -0.9037
    -0.9027  -0.9009  -0.8987  -0.8958  -0.8958  -0.8665  -0.8664  -0.8526
    -0.8352  -0.8347  -0.8265  -0.8264  -0.8182  -0.8110  -0.8098  -0.7733
    -0.7731  -0.7618  -0.7618  -0.7415  -0.7414  -0.7260  -0.7019  -0.6938
    -0.6761  -0.6759  -0.6383  -0.6381  -0.6352  -0.6349  -0.6341  -0.6281
    -0.6272  -0.6270  -0.6231  -0.6204  -0.5874  -0.5872  -0.5860  -0.5858
    -0.5845  -0.5840  -0.5704  -0.5702  -0.5420  -0.2796  -0.2737  -0.2280
    -0.2269  -0.1964  -0.1378   0.0148   0.0150   0.0456   0.3303   0.3304
     0.6708   0.6718   0.7148   0.7149   0.7647   0.7652   0.9244   0.9247
     1.0529   1.0540   1.1680   1.6634   1.7059   1.7091   1.7464   1.7467
     1.8834   1.8856   1.9400   1.9403   2.1226   2.1228   2.4080   2.4342
     2.4355   2.4557   2.8902   2.8921   2.9134   2.9151   2.9306   2.9309
     2.9964   2.9970   3.1549   3.2748   3.2757   3.4596   3.4703   3.5714
     3.6433   3.6436   3.9432   3.9438   4.0003   4.0016   4.0018   4.1483
     4.1490   4.1692   4.1718   4.4441   4.4460   4.4824   4.4826   4.5958
     4.6013   4.6631   4.6651   4.9432   5.0377   5.5455   5.5463   5.6232
     5.6280   5.7529   5.7534   5.8251   5.8253   5.8330   5.8419   5.8421
     5.9388   5.9542   5.9894   6.1090   6.2410   6.2422   6.2527   6.2534
     6.2587   6.2682   6.2776   6.3206   6.4288   6.4311   6.5039   6.5556

          k = 0.2500-0.2500-0.0833 (167653 PWs)   bands (ev):

   -19.1773  -6.9905  -6.7898  -6.2596  -6.2594  -5.8213  -5.4178  -5.3192
    -5.3190  -5.0974  -5.0973  -5.0005  -5.0001  -4.8669  -4.8592  -4.7498
    -4.6612  -4.6573  -4.6360  -4.6360  -4.4549  -4.4537  -4.4536  -4.4269
    -4.4228  -4.4223  -4.4187  -4.3652  -4.3650  -4.3624  -4.3623  -4.2987
    -4.2702  -4.2701  -4.2135  -4.2101  -4.2089  -4.1729  -4.1727  -4.1588
    -4.1544  -4.1356  -4.1356  -4.0981  -4.0659  -4.0657  -4.0634  -4.0602
    -4.0602  -4.0298  -3.9995  -3.9993  -3.9699  -3.9698  -3.9658  -3.9658
    -3.9636  -3.9577  -3.9256  -3.9252  -3.8653  -3.8650  -3.8329  -3.8064
    -3.7998  -3.7962  -3.7958  -3.7736  -3.7735  -3.7617  -3.7114  -3.7114
    -3.7054  -3.7053  -3.6200  -3.6198  -3.5978  -3.5975  -3.5631  -3.5599
    -3.5480  -3.5218  -3.5218  -3.4775  -3.4774  -3.4749  -3.4748  -3.4502
    -3.4500  -3.3695  -3.3694  -3.3676  -3.3541  -3.3382  -3.3356  -3.3227
    -3.3226  -3.3154  -3.3153  -3.2726  -3.2726  -3.2496  -3.2494  -3.2132
    -3.2130  -3.1867  -3.1866  -3.1656  -3.1655  -3.1193  -3.1193  -3.0867
    -3.0592  -3.0587  -3.0582  -3.0575  -3.0537  -3.0536  -3.0259  -3.0174
    -2.9783  -2.9783  -2.9571  -2.9336  -2.9306  -2.9305  -2.9239  -2.9238
    -2.9196  -2.9195  -2.8844  -2.8834  -2.8834  -2.8780  -2.8779  -2.8729
    -2.8178  -2.8118  -2.8079  -2.8077  -2.7856  -2.7855  -2.7803  -2.6917
    -2.6811  -2.6809  -2.6714  -2.6713  -2.6654  -2.6639  -2.6632  -2.6554
    -2.6553  -2.6446  -2.6372  -2.6341  -2.6339  -2.6295  -2.6196  -2.6141
    -2.6121  -2.5899  -2.5793  -2.5791  -2.5633  -2.5633  -2.5463  -2.5462
    -2.5375  -2.5374  -2.5168  -2.5041  -2.5041  -2.4988  -2.4986  -2.4648
    -2.4624  -2.4624  -2.4042  -2.4010  -2.3860  -2.3860  -2.3754  -2.3709
    -2.3478  -2.3476  -2.3435  -2.3308  -2.3306  -2.3191  -2.3188  -2.3023
    -2.3019  -2.2751  -2.2751  -2.2649  -2.2647  -2.2550  -2.2548  -2.2376
    -2.2247  -2.2040  -2.1350  -2.1337  -2.1143  -2.1142  -2.1024  -2.1023
    -2.0523  -2.0520  -2.0369  -2.0174  -2.0049  -2.0048  -1.9867  -1.9683
    -1.9682  -1.9551  -1.9482  -1.9162  -1.9157  -1.9144  -1.9075  -1.9074
    -1.8997  -1.8996  -1.8790  -1.8728  -1.8622  -1.8621  -1.8616  -1.8616
    -1.8605  -1.8601  -1.8464  -1.8264  -1.8264  -1.8230  -1.8176  -1.8047
    -1.8045  -1.8003  -1.8001  -1.7944  -1.7924  -1.7583  -1.7580  -1.7134
    -1.6942  -1.6941  -1.6484  -1.6483  -1.6482  -1.6375  -1.6372  -1.6236
    -1.6232  -1.6160  -1.6157  -1.6054  -1.6052  -1.5849  -1.5848  -1.5479
    -1.5477  -1.5304  -1.5081  -1.5080  -1.4686  -1.4684  -1.4181  -1.4180
    -1.3970  -1.3723  -1.3711  -1.3705  -1.3649  -1.3641  -1.3444  -1.3441
    -1.3433  -1.3430  -1.3413  -1.3409  -1.3403  -1.3392  -1.3377  -1.3109
    -1.3109  -1.2779  -1.2766  -1.2765  -1.2549  -1.2548  -1.2499  -1.2497
    -1.2467  -1.2362  -1.2085  -1.2083  -1.1840  -1.1828  -1.1822  -1.1624
    -1.1511  -1.1508  -1.1448  -1.1217  -1.1215  -1.1147  -1.1146  -1.0761
    -1.0758  -1.0641  -1.0639  -1.0631  -1.0630  -1.0369  -1.0367  -1.0226
    -1.0153  -1.0152  -1.0034  -1.0030  -1.0015  -1.0013  -0.9903  -0.9802
    -0.9792  -0.9727  -0.9726  -0.9657  -0.9616  -0.9615  -0.9453  -0.9037
    -0.9027  -0.9009  -0.8987  -0.8958  -0.8958  -0.8665  -0.8664  -0.8526
    -0.8352  -0.8347  -0.8265  -0.8264  -0.8182  -0.8110  -0.8098  -0.7733
    -0.7731  -0.7618  -0.7618  -0.7415  -0.7414  -0.7260  -0.7019  -0.6938
    -0.6761  -0.6759  -0.6383  -0.6381  -0.6352  -0.6349  -0.6341  -0.6281
    -0.6272  -0.6270  -0.6231  -0.6204  -0.5874  -0.5872  -0.5860  -0.5858
    -0.5845  -0.5840  -0.5704  -0.5702  -0.5420  -0.2796  -0.2737  -0.2280
    -0.2269  -0.1964  -0.1378   0.0148   0.0150   0.0456   0.3303   0.3304
     0.6708   0.6718   0.7148   0.7149   0.7647   0.7652   0.9244   0.9247
     1.0529   1.0540   1.1680   1.6634   1.7059   1.7091   1.7464   1.7467
     1.8834   1.8856   1.9400   1.9403   2.1226   2.1228   2.4080   2.4342
     2.4355   2.4557   2.8902   2.8921   2.9134   2.9151   2.9306   2.9309
     2.9964   2.9970   3.1549   3.2748   3.2757   3.4596   3.4703   3.5714
     3.6433   3.6436   3.9432   3.9438   4.0003   4.0016   4.0018   4.1483
     4.1490   4.1692   4.1718   4.4441   4.4460   4.4824   4.4826   4.5958
     4.6013   4.6631   4.6651   4.9432   5.0377   5.5455   5.5463   5.6232
     5.6280   5.7529   5.7534   5.8251   5.8253   5.8337   5.8419   5.8421
     5.9386   5.9542   5.9880   6.1097   6.2410   6.2422   6.2527   6.2534
     6.2587   6.2682   6.2779   6.3203   6.4290   6.4310   6.5055   6.5562

          k =-0.2500 0.2500 0.2500 (167588 PWs)   bands (ev):

   -19.1773  -6.9905  -6.7898  -6.2596  -6.2594  -5.8213  -5.4178  -5.3192
    -5.3190  -5.0974  -5.0973  -5.0005  -5.0001  -4.8669  -4.8592  -4.7498
    -4.6612  -4.6573  -4.6360  -4.6360  -4.4549  -4.4537  -4.4536  -4.4269
    -4.4228  -4.4223  -4.4187  -4.3652  -4.3650  -4.3624  -4.3623  -4.2987
    -4.2702  -4.2701  -4.2135  -4.2101  -4.2090  -4.1729  -4.1727  -4.1588
    -4.1544  -4.1356  -4.1356  -4.0981  -4.0659  -4.0657  -4.0634  -4.0602
    -4.0602  -4.0298  -3.9995  -3.9993  -3.9699  -3.9698  -3.9658  -3.9658
    -3.9636  -3.9578  -3.9256  -3.9252  -3.8653  -3.8650  -3.8329  -3.8064
    -3.7998  -3.7962  -3.7958  -3.7736  -3.7735  -3.7617  -3.7114  -3.7114
    -3.7054  -3.7053  -3.6200  -3.6198  -3.5978  -3.5975  -3.5631  -3.5599
    -3.5480  -3.5218  -3.5218  -3.4775  -3.4774  -3.4749  -3.4748  -3.4502
    -3.4499  -3.3695  -3.3694  -3.3676  -3.3541  -3.3382  -3.3356  -3.3227
    -3.3226  -3.3154  -3.3153  -3.2725  -3.2725  -3.2496  -3.2494  -3.2132
    -3.2130  -3.1867  -3.1866  -3.1656  -3.1655  -3.1193  -3.1193  -3.0867
    -3.0592  -3.0587  -3.0582  -3.0575  -3.0537  -3.0536  -3.0259  -3.0174
    -2.9783  -2.9783  -2.9571  -2.9336  -2.9306  -2.9305  -2.9239  -2.9238
    -2.9196  -2.9196  -2.8844  -2.8834  -2.8834  -2.8779  -2.8779  -2.8729
    -2.8178  -2.8118  -2.8079  -2.8077  -2.7856  -2.7855  -2.7803  -2.6917
    -2.6811  -2.6809  -2.6714  -2.6713  -2.6654  -2.6639  -2.6632  -2.6554
    -2.6553  -2.6446  -2.6372  -2.6341  -2.6339  -2.6295  -2.6196  -2.6141
    -2.6121  -2.5899  -2.5793  -2.5791  -2.5633  -2.5633  -2.5463  -2.5462
    -2.5375  -2.5374  -2.5168  -2.5041  -2.5041  -2.4987  -2.4986  -2.4648
    -2.4624  -2.4624  -2.4042  -2.4010  -2.3860  -2.3860  -2.3754  -2.3709
    -2.3478  -2.3476  -2.3435  -2.3308  -2.3306  -2.3191  -2.3188  -2.3022
    -2.3019  -2.2751  -2.2751  -2.2649  -2.2647  -2.2550  -2.2548  -2.2376
    -2.2247  -2.2040  -2.1350  -2.1337  -2.1143  -2.1142  -2.1024  -2.1023
    -2.0523  -2.0520  -2.0369  -2.0174  -2.0049  -2.0048  -1.9867  -1.9683
    -1.9682  -1.9551  -1.9482  -1.9162  -1.9157  -1.9144  -1.9075  -1.9074
    -1.8997  -1.8996  -1.8790  -1.8728  -1.8622  -1.8621  -1.8616  -1.8616
    -1.8605  -1.8601  -1.8465  -1.8264  -1.8264  -1.8230  -1.8176  -1.8047
    -1.8045  -1.8003  -1.8001  -1.7944  -1.7924  -1.7583  -1.7580  -1.7134
    -1.6942  -1.6941  -1.6484  -1.6483  -1.6482  -1.6375  -1.6372  -1.6236
    -1.6232  -1.6159  -1.6157  -1.6054  -1.6052  -1.5849  -1.5848  -1.5479
    -1.5477  -1.5304  -1.5081  -1.5079  -1.4686  -1.4684  -1.4181  -1.4180
    -1.3970  -1.3723  -1.3711  -1.3705  -1.3649  -1.3641  -1.3444  -1.3441
    -1.3433  -1.3430  -1.3413  -1.3409  -1.3403  -1.3392  -1.3377  -1.3109
    -1.3109  -1.2779  -1.2766  -1.2765  -1.2549  -1.2548  -1.2499  -1.2497
    -1.2467  -1.2362  -1.2085  -1.2083  -1.1840  -1.1829  -1.1822  -1.1624
    -1.1511  -1.1508  -1.1448  -1.1217  -1.1215  -1.1147  -1.1146  -1.0761
    -1.0758  -1.0641  -1.0639  -1.0631  -1.0630  -1.0369  -1.0367  -1.0226
    -1.0153  -1.0152  -1.0034  -1.0030  -1.0015  -1.0013  -0.9903  -0.9802
    -0.9792  -0.9727  -0.9726  -0.9657  -0.9616  -0.9615  -0.9453  -0.9037
    -0.9027  -0.9009  -0.8987  -0.8959  -0.8958  -0.8665  -0.8664  -0.8526
    -0.8351  -0.8347  -0.8265  -0.8264  -0.8182  -0.8110  -0.8098  -0.7733
    -0.7731  -0.7618  -0.7618  -0.7415  -0.7414  -0.7260  -0.7019  -0.6938
    -0.6761  -0.6759  -0.6383  -0.6381  -0.6352  -0.6350  -0.6341  -0.6281
    -0.6272  -0.6270  -0.6231  -0.6204  -0.5874  -0.5872  -0.5860  -0.5858
    -0.5845  -0.5840  -0.5704  -0.5702  -0.5419  -0.2796  -0.2737  -0.2280
    -0.2269  -0.1964  -0.1378   0.0148   0.0150   0.0456   0.3303   0.3304
     0.6708   0.6718   0.7148   0.7149   0.7647   0.7652   0.9244   0.9247
     1.0529   1.0540   1.1680   1.6634   1.7059   1.7091   1.7464   1.7467
     1.8834   1.8856   1.9400   1.9403   2.1226   2.1228   2.4080   2.4342
     2.4355   2.4557   2.8902   2.8921   2.9134   2.9151   2.9306   2.9309
     2.9964   2.9970   3.1549   3.2748   3.2757   3.4596   3.4703   3.5714
     3.6433   3.6436   3.9432   3.9438   4.0003   4.0016   4.0018   4.1484
     4.1490   4.1693   4.1719   4.4441   4.4460   4.4824   4.4826   4.5958
     4.6013   4.6631   4.6651   4.9437   5.0342   5.5455   5.5463   5.6234
     5.6279   5.7529   5.7534   5.8114   5.8251   5.8256   5.8419   5.8421
     5.9413   5.9542   6.0374   6.1076   6.2410   6.2422   6.2527   6.2534
     6.2587   6.2683   6.3012   6.3769   6.4287   6.4348   6.5044   6.5521

     the Fermi energy is     0.9963 ev

!    total energy              =   -7379.97830477 Ry
     Harris-Foulkes estimate   =   -7379.97830478 Ry
     estimated scf accuracy    <          6.7E-09 Ry

     The total energy is the sum of the following terms:

     one-electron contribution =  -48146.03466178 Ry
     hartree contribution      =   24623.91058647 Ry
     xc contribution           =   -3556.23794296 Ry
     ewald contribution        =   19698.38267710 Ry
     smearing contrib. (-TS)   =       0.00103640 Ry

     convergence has been achieved in  27 iterations

     Writing output data file 5349624.save

     init_run     :    170.37s CPU    175.31s WALL (       1 calls)
     electrons    :   7895.11s CPU   8141.78s WALL (       1 calls)

     Called by init_run:
     wfcinit      :    143.00s CPU    147.23s WALL (       1 calls)
     potinit      :      3.51s CPU      3.60s WALL (       1 calls)

     Called by electrons:
     c_bands      :   6739.50s CPU   6940.42s WALL (      28 calls)
     sum_band     :    857.62s CPU    898.69s WALL (      28 calls)
     v_of_rho     :     16.85s CPU     18.05s WALL (      28 calls)
     newd         :    287.38s CPU    290.30s WALL (      28 calls)
     mix_rho      :      2.78s CPU      3.10s WALL (      28 calls)

     Called by c_bands:
     init_us_2    :      8.10s CPU      8.29s WALL (     342 calls)
     cegterg      :   6512.16s CPU   6711.89s WALL (     168 calls)

     Called by *egterg:
     h_psi        :   2518.57s CPU   2689.12s WALL (     976 calls)
     s_psi        :    352.10s CPU    353.71s WALL (     976 calls)
     g_psi        :      4.63s CPU      4.62s WALL (     802 calls)
     cdiaghg      :   1762.62s CPU   1767.43s WALL (     964 calls)

     Called by h_psi:
     add_vuspsi   :    353.47s CPU    355.19s WALL (     976 calls)

     General routines
     calbec       :    790.16s CPU    792.46s WALL (    1144 calls)
     fft          :     92.75s CPU     94.99s WALL (     448 calls)
     ffts         :      2.06s CPU      2.24s WALL (      56 calls)
     fftw         :   1818.78s CPU   2012.98s WALL (  457810 calls)
     interpolate  :      4.55s CPU      5.07s WALL (      56 calls)
     davcio       :      0.00s CPU      0.10s WALL (       6 calls)

     Parallel routines
     fft_scatter  :   1386.46s CPU   1540.62s WALL (  458314 calls)

     PWSCF        :     2h14m CPU        2h18m WALL


   This run was terminated on:  22: 3:52   7Aug2015            

=------------------------------------------------------------------------------=
   JOB DONE.
=------------------------------------------------------------------------------=
