
     Program PWSCF v.5.1.2 starts on  7Aug2015 at 19:50:18 

     This program is part of the open-source Quantum ESPRESSO suite
     for quantum simulation of materials; please cite
         "P. Giannozzi et al., J. Phys.:Condens. Matter 21 395502 (2009);
          URL http://www.quantum-espresso.org", 
     in publications or presentations arising from this work. More details at
     http://www.quantum-espresso.org/quote

     Parallel version (MPI), running on    32 processors
     R & G space division:  proc/nbgrp/npool/nimage =      32
     Reading input from top.O1.Au5859.d.2.7.phi.45.psi.180.in
Warning: card &IONS ignored
Warning: card / ignored
Warning: card &CELL ignored
Warning: card / ignored

     Current dimensions of program PWSCF are:
     Max number of different atomic species (ntypx) = 10
     Max number of k-points (npk) =  40000
     Max angular momentum in pseudopotentials (lmaxx) =  3

     Subspace diagonalization in iterative solution of the eigenvalue problem:
     a serial algorithm will be used


     Parallelization info
     --------------------
     sticks:   dense  smooth     PW     G-vecs:    dense   smooth      PW
     Min         578     289     74               118518    41891    5486
     Max         579     290     75               118533    41932    5497
     Sum       18505    9265   2385              3792731  1341081  175711


     Title: 
     top.O1.Au5859.d.2.7.phi.45.psi.180                                         


     bravais-lattice index     =            8
     lattice parameter (alat)  =      24.1233  a.u.
     unit-cell volume          =   28076.2361 (a.u.)^3
     number of atoms/cell      =           75
     number of atomic types    =            3
     number of electrons       =       800.00
     number of Kohn-Sham states=          480
     kinetic-energy cutoff     =      50.0000  Ry
     charge density cutoff     =     400.0000  Ry
     convergence threshold     =      1.0E-08
     mixing beta               =       0.7000
     number of iterations used =            8  plain     mixing
     Exchange-correlation      =  SLA  PW   PBE  PBE ( 1  4  3  4 0 0)

     celldm(1)=  24.123277  celldm(2)=   1.000000  celldm(3)=   2.000000
     celldm(4)=   0.000000  celldm(5)=   0.000000  celldm(6)=   0.000000

     crystal axes: (cart. coord. in units of alat)
               a(1) = (   1.000000   0.000000   0.000000 )  
               a(2) = (   0.000000   1.000000   0.000000 )  
               a(3) = (   0.000000   0.000000   2.000000 )  

     reciprocal axes: (cart. coord. in units 2 pi/alat)
               b(1) = (  1.000000  0.000000  0.000000 )  
               b(2) = (  0.000000  1.000000  0.000000 )  
               b(3) = (  0.000000  0.000000  0.500000 )  


     PseudoPot. # 1 for Au read from file:
     /home/scc/andrejb/qe/pseudo/Au.pbe-nd-van.UPF
     MD5 check sum: 458681b50f36d87ef23c61b04bba420a
     Pseudo is Ultrasoft + core correction, Zval = 11.0
     Generated by new atomic code, or converted to UPF format
     Using radial grid of  985 points,  3 beta functions with: 
                l(1) =   1
                l(2) =   2
                l(3) =   2
     Q(r) pseudized with  8 coefficients,  rinner =    1.100   1.100   1.100
                                                       1.100   1.100

     PseudoPot. # 2 for H  read from file:
     /home/scc/andrejb/qe/pseudo/H.pbe-van_ak.UPF
     MD5 check sum: 403db7282739603aa925980fa9b8608d
     Pseudo is Ultrasoft, Zval =  1.0
     Generated by new atomic code, or converted to UPF format
     Using radial grid of  615 points,  1 beta functions with: 
                l(1) =   0
     Q(r) pseudized with  8 coefficients,  rinner =    0.800

     PseudoPot. # 3 for O  read from file:
     /home/scc/andrejb/qe/pseudo/O.pbe-van_ak.UPF
     MD5 check sum: 4b8c549914a63cae506c6ff22b5af4fe
     Pseudo is Ultrasoft, Zval =  6.0
     Generated by new atomic code, or converted to UPF format
     Using radial grid of  737 points,  4 beta functions with: 
                l(1) =   0
                l(2) =   0
                l(3) =   1
                l(4) =   1
     Q(r) pseudized with  8 coefficients,  rinner =    0.800   0.800   0.800


     atomic species   valence    mass     pseudopotential
        Au            11.00   196.96657     Au( 1.00)
        H              1.00     1.01000     H ( 1.00)
        O              6.00    16.00000     O ( 1.00)

     No symmetry found



   Cartesian axes

     site n.     atom                  positions (alat units)
         1           O   tau(   1) = (   0.1666051   0.1666105   0.7108218  )
         2           H   tau(   2) = (   0.1610146   0.2275978   0.6653279  )
         3           H   tau(   3) = (   0.1720135   0.1074596   0.6629641  )
         4           Au  tau(   4) = (   0.0000000   0.0000000   0.0000000  )
         5           Au  tau(   5) = (   0.3332217   0.0000000   0.0000000  )
         6           Au  tau(   6) = (   0.6664434   0.0000000   0.0000000  )
         7           Au  tau(   7) = (   0.1666109   0.1666109   0.0000000  )
         8           Au  tau(   8) = (   0.4998326   0.1666109   0.0000000  )
         9           Au  tau(   9) = (   0.8330542   0.1666109   0.0000000  )
        10           Au  tau(  10) = (   0.0000000   0.3332217   0.0000000  )
        11           Au  tau(  11) = (   0.3332217   0.3332217   0.0000000  )
        12           Au  tau(  12) = (   0.6664434   0.3332217   0.0000000  )
        13           Au  tau(  13) = (   0.1666109   0.4998326   0.0000000  )
        14           Au  tau(  14) = (   0.4998326   0.4998326   0.0000000  )
        15           Au  tau(  15) = (   0.8330542   0.4998326   0.0000000  )
        16           Au  tau(  16) = (   0.0000000   0.6664434   0.0000000  )
        17           Au  tau(  17) = (   0.3332217   0.6664434   0.0000000  )
        18           Au  tau(  18) = (   0.6664434   0.6664434   0.0000000  )
        19           Au  tau(  19) = (   0.1666109   0.8330542   0.0000000  )
        20           Au  tau(  20) = (   0.4998326   0.8330542   0.0000000  )
        21           Au  tau(  21) = (   0.8330542   0.8330542   0.0000000  )
        22           Au  tau(  22) = (   0.1666109   0.0000000   0.1666109  )
        23           Au  tau(  23) = (   0.4998326   0.0000000   0.1666109  )
        24           Au  tau(  24) = (   0.8330542   0.0000000   0.1666109  )
        25           Au  tau(  25) = (   0.0000000   0.1666109   0.1666109  )
        26           Au  tau(  26) = (   0.3332217   0.1666109   0.1666109  )
        27           Au  tau(  27) = (   0.6664434   0.1666109   0.1666109  )
        28           Au  tau(  28) = (   0.1666109   0.3332217   0.1666109  )
        29           Au  tau(  29) = (   0.4998326   0.3332217   0.1666109  )
        30           Au  tau(  30) = (   0.8330542   0.3332217   0.1666109  )
        31           Au  tau(  31) = (   0.0000000   0.4998326   0.1666109  )
        32           Au  tau(  32) = (   0.3332217   0.4998326   0.1666109  )
        33           Au  tau(  33) = (   0.6664434   0.4998326   0.1666109  )
        34           Au  tau(  34) = (   0.1666109   0.6664434   0.1666109  )
        35           Au  tau(  35) = (   0.4998326   0.6664434   0.1666109  )
        36           Au  tau(  36) = (   0.8330542   0.6664434   0.1666109  )
        37           Au  tau(  37) = (   0.0000000   0.8330542   0.1666109  )
        38           Au  tau(  38) = (   0.3332217   0.8330542   0.1666109  )
        39           Au  tau(  39) = (   0.6664434   0.8330542   0.1666109  )
        40           Au  tau(  40) = (  -0.0000182  -0.0000182   0.3335478  )
        41           Au  tau(  41) = (   0.3332215  -0.0000181   0.3335473  )
        42           Au  tau(  42) = (   0.6664447  -0.0000183   0.3335481  )
        43           Au  tau(  43) = (  -0.0000181   0.3332215   0.3335473  )
        44           Au  tau(  44) = (   0.3332215   0.3332215   0.3335468  )
        45           Au  tau(  45) = (   0.6664445   0.3332215   0.3335477  )
        46           Au  tau(  46) = (  -0.0000183   0.6664447   0.3335481  )
        47           Au  tau(  47) = (   0.3332215   0.6664445   0.3335477  )
        48           Au  tau(  48) = (   0.6664446   0.6664446   0.3335486  )
        49           Au  tau(  49) = (   0.1666097   0.1666097   0.3335483  )
        50           Au  tau(  50) = (   0.4998320   0.1666098   0.3335477  )
        51           Au  tau(  51) = (   0.8330732   0.1666096   0.3335480  )
        52           Au  tau(  52) = (   0.1666098   0.4998320   0.3335477  )
        53           Au  tau(  53) = (   0.4998322   0.4998322   0.3335470  )
        54           Au  tau(  54) = (   0.8330731   0.4998322   0.3335474  )
        55           Au  tau(  55) = (   0.1666096   0.8330732   0.3335480  )
        56           Au  tau(  56) = (   0.4998322   0.8330731   0.3335474  )
        57           Au  tau(  57) = (   0.8330731   0.8330731   0.3335478  )
        58           Au  tau(  58) = (   0.1666104  -0.0000111   0.4993095  )
        59           Au  tau(  59) = (   0.4998323  -0.0000112   0.4993099  )
        60           Au  tau(  60) = (   0.8330660  -0.0000111   0.4993009  )
        61           Au  tau(  61) = (  -0.0000111   0.1666104   0.4993095  )
        62           Au  tau(  62) = (   0.3332213   0.1666106   0.4993185  )
        63           Au  tau(  63) = (   0.6664437   0.1666106   0.4993187  )
        64           Au  tau(  64) = (   0.1666106   0.3332213   0.4993185  )
        65           Au  tau(  65) = (   0.4998324   0.3332216   0.4993185  )
        66           Au  tau(  66) = (   0.8330658   0.3332215   0.4993102  )
        67           Au  tau(  67) = (  -0.0000112   0.4998323   0.4993099  )
        68           Au  tau(  68) = (   0.3332216   0.4998324   0.4993185  )
        69           Au  tau(  69) = (   0.6664437   0.4998325   0.4993187  )
        70           Au  tau(  70) = (   0.1666106   0.6664437   0.4993187  )
        71           Au  tau(  71) = (   0.4998325   0.6664437   0.4993187  )
        72           Au  tau(  72) = (   0.8330658   0.6664438   0.4993102  )
        73           Au  tau(  73) = (  -0.0000111   0.8330660   0.4993009  )
        74           Au  tau(  74) = (   0.3332215   0.8330658   0.4993102  )
        75           Au  tau(  75) = (   0.6664438   0.8330658   0.4993102  )

     number of k points=     6  Marzari-Vanderbilt smearing, width (Ry)=  0.0200
                       cart. coord. in units 2pi/alat
        k(    1) = (   0.2500000   0.2500000   0.0833333), wk =   0.3333333
        k(    2) = (   0.2500000   0.2500000  -0.2500000), wk =   0.3333333
        k(    3) = (  -0.2500000  -0.2500000   0.0833333), wk =   0.3333333
        k(    4) = (  -0.2500000   0.2500000  -0.0833333), wk =   0.3333333
        k(    5) = (   0.2500000  -0.2500000  -0.0833333), wk =   0.3333333
        k(    6) = (  -0.2500000   0.2500000   0.2500000), wk =   0.3333333

     Dense  grid:  3792731 G-vectors     FFT dimensions: ( 160, 160, 320)

     Smooth grid:  1341081 G-vectors     FFT dimensions: ( 120, 120, 225)

     Largest allocated arrays     est. size (Mb)     dimensions
        Kohn-Sham Wavefunctions        38.58 Mb     (    5267,  480)
        NL pseudopotentials            76.03 Mb     (    5267,  946)
        Each V/rho on FFT grid          3.91 Mb     (  256000)
        Each G-vector array             0.90 Mb     (  118520)
        G-vector shells                 0.08 Mb     (   10286)
     Largest temporary arrays     est. size (Mb)     dimensions
        Auxiliary wavefunctions       154.31 Mb     (    5267, 1920)
        Each subspace H/S matrix       56.25 Mb     (    1920, 1920)
        Each <psi_i|beta_j> matrix      6.93 Mb     (     946,  480)
        Arrays for rho mixing          31.25 Mb     (  256000,    8)

     Initial potential from superposition of free atoms
     Check: negative starting charge=   -1.945263

     starting charge  799.16392, renormalised to  800.00000

     negative rho (up, down):  1.947E+00 0.000E+00
     Starting wfc are  654 randomized atomic wfcs

     total cpu time spent up to now is      123.5 secs

     Self-consistent Calculation

     iteration #  1     ecut=    50.00 Ry     beta=0.70
     Davidson diagonalization with overlap
     ethr =  1.00E-02,  avg # of iterations =  3.0

     Threshold (ethr) on eigenvalues was too large:
     Diagonalizing with lowered threshold

     Davidson diagonalization with overlap
     ethr =  4.77E-04,  avg # of iterations =  2.0

     negative rho (up, down):  1.932E+00 0.000E+00

     total cpu time spent up to now is      491.1 secs

     total energy              =   -7377.50409536 Ry
     Harris-Foulkes estimate   =   -7380.92073762 Ry
     estimated scf accuracy    <       4.34906228 Ry

     iteration #  2     ecut=    50.00 Ry     beta=0.70
     Davidson diagonalization with overlap
     ethr =  5.44E-04,  avg # of iterations = 11.3

     negative rho (up, down):  1.930E+00 0.000E+00

     total cpu time spent up to now is     1153.1 secs

     total energy              =   -7369.48205612 Ry
     Harris-Foulkes estimate   =   -7387.57670309 Ry
     estimated scf accuracy    <      91.78815492 Ry

     iteration #  3     ecut=    50.00 Ry     beta=0.70
     Davidson diagonalization with overlap
     ethr =  5.44E-04,  avg # of iterations =  6.0

     negative rho (up, down):  1.946E+00 0.000E+00

     total cpu time spent up to now is     1539.1 secs

     total energy              =   -7378.60389118 Ry
     Harris-Foulkes estimate   =   -7380.73645368 Ry
     estimated scf accuracy    <       8.44978359 Ry

     iteration #  4     ecut=    50.00 Ry     beta=0.70
     Davidson diagonalization with overlap
     ethr =  5.44E-04,  avg # of iterations =  4.3

     negative rho (up, down):  1.951E+00 0.000E+00

     total cpu time spent up to now is     1763.3 secs

     total energy              =   -7379.38886982 Ry
     Harris-Foulkes estimate   =   -7380.47014456 Ry
     estimated scf accuracy    <       5.53176710 Ry

     iteration #  5     ecut=    50.00 Ry     beta=0.70
     Davidson diagonalization with overlap
     ethr =  5.44E-04,  avg # of iterations =  5.3

     negative rho (up, down):  1.959E+00 0.000E+00

     total cpu time spent up to now is     1985.0 secs

     total energy              =   -7379.63881671 Ry
     Harris-Foulkes estimate   =   -7380.39789603 Ry
     estimated scf accuracy    <       5.97020510 Ry

     iteration #  6     ecut=    50.00 Ry     beta=0.70
     Davidson diagonalization with overlap
     ethr =  5.44E-04,  avg # of iterations =  3.0

     negative rho (up, down):  1.962E+00 0.000E+00

     total cpu time spent up to now is     2187.1 secs

     total energy              =   -7379.95304878 Ry
     Harris-Foulkes estimate   =   -7380.03760830 Ry
     estimated scf accuracy    <       0.33120074 Ry

     iteration #  7     ecut=    50.00 Ry     beta=0.70
     Davidson diagonalization with overlap
     ethr =  4.14E-05,  avg # of iterations =  6.7

     negative rho (up, down):  1.966E+00 0.000E+00

     total cpu time spent up to now is     2416.5 secs

     total energy              =   -7379.97043179 Ry
     Harris-Foulkes estimate   =   -7380.02374164 Ry
     estimated scf accuracy    <       0.29323329 Ry

     iteration #  8     ecut=    50.00 Ry     beta=0.70
     Davidson diagonalization with overlap
     ethr =  3.67E-05,  avg # of iterations =  3.0

     negative rho (up, down):  1.968E+00 0.000E+00

     total cpu time spent up to now is     2596.0 secs

     total energy              =   -7379.97904291 Ry
     Harris-Foulkes estimate   =   -7380.00286153 Ry
     estimated scf accuracy    <       0.10504737 Ry

     iteration #  9     ecut=    50.00 Ry     beta=0.70
     Davidson diagonalization with overlap
     ethr =  1.31E-05,  avg # of iterations =  6.7

     negative rho (up, down):  1.969E+00 0.000E+00

     total cpu time spent up to now is     2806.1 secs

     total energy              =   -7379.97957737 Ry
     Harris-Foulkes estimate   =   -7379.99171934 Ry
     estimated scf accuracy    <       0.04140929 Ry

     iteration # 10     ecut=    50.00 Ry     beta=0.70
     Davidson diagonalization with overlap
     ethr =  5.18E-06,  avg # of iterations = 14.5

     negative rho (up, down):  1.969E+00 0.000E+00

     total cpu time spent up to now is     3106.9 secs

     total energy              =   -7379.98077116 Ry
     Harris-Foulkes estimate   =   -7379.98474490 Ry
     estimated scf accuracy    <       0.01114116 Ry

     iteration # 11     ecut=    50.00 Ry     beta=0.70
     Davidson diagonalization with overlap
     ethr =  1.39E-06,  avg # of iterations =  3.5

     negative rho (up, down):  1.970E+00 0.000E+00

     total cpu time spent up to now is     3288.6 secs

     total energy              =   -7379.98126807 Ry
     Harris-Foulkes estimate   =   -7379.98293493 Ry
     estimated scf accuracy    <       0.00481213 Ry

     iteration # 12     ecut=    50.00 Ry     beta=0.70
     Davidson diagonalization with overlap
     ethr =  6.02E-07,  avg # of iterations =  2.0

     negative rho (up, down):  1.971E+00 0.000E+00

     total cpu time spent up to now is     3449.3 secs

     total energy              =   -7379.98112453 Ry
     Harris-Foulkes estimate   =   -7379.98228563 Ry
     estimated scf accuracy    <       0.00330299 Ry

     iteration # 13     ecut=    50.00 Ry     beta=0.70
     Davidson diagonalization with overlap
     ethr =  4.13E-07,  avg # of iterations =  7.5

     negative rho (up, down):  1.971E+00 0.000E+00

     total cpu time spent up to now is     3732.3 secs

     total energy              =   -7379.98046279 Ry
     Harris-Foulkes estimate   =   -7379.98339740 Ry
     estimated scf accuracy    <       0.01575369 Ry

     iteration # 14     ecut=    50.00 Ry     beta=0.70
     Davidson diagonalization with overlap
     ethr =  4.13E-07,  avg # of iterations =  8.7

     negative rho (up, down):  1.970E+00 0.000E+00

     total cpu time spent up to now is     3999.9 secs

     total energy              =   -7379.98183658 Ry
     Harris-Foulkes estimate   =   -7379.98190243 Ry
     estimated scf accuracy    <       0.00014433 Ry

     iteration # 15     ecut=    50.00 Ry     beta=0.70
     Davidson diagonalization with overlap
     ethr =  1.80E-08,  avg # of iterations =  3.0

     negative rho (up, down):  1.970E+00 0.000E+00

     total cpu time spent up to now is     4230.6 secs

     total energy              =   -7379.98175610 Ry
     Harris-Foulkes estimate   =   -7379.98199844 Ry
     estimated scf accuracy    <       0.00157328 Ry

     iteration # 16     ecut=    50.00 Ry     beta=0.70
     Davidson diagonalization with overlap
     ethr =  1.80E-08,  avg # of iterations =  3.0

     negative rho (up, down):  1.970E+00 0.000E+00

     total cpu time spent up to now is     4436.3 secs

     total energy              =   -7379.98182331 Ry
     Harris-Foulkes estimate   =   -7379.98195478 Ry
     estimated scf accuracy    <       0.00094484 Ry

     iteration # 17     ecut=    50.00 Ry     beta=0.70
     Davidson diagonalization with overlap
     ethr =  1.80E-08,  avg # of iterations =  2.0

     negative rho (up, down):  1.970E+00 0.000E+00

     total cpu time spent up to now is     4599.2 secs

     total energy              =   -7379.98188710 Ry
     Harris-Foulkes estimate   =   -7379.98189254 Ry
     estimated scf accuracy    <       0.00001919 Ry

     iteration # 18     ecut=    50.00 Ry     beta=0.70
     Davidson diagonalization with overlap
     ethr =  2.40E-09,  avg # of iterations =  2.0

     negative rho (up, down):  1.970E+00 0.000E+00

     total cpu time spent up to now is     4765.4 secs

     total energy              =   -7379.98188884 Ry
     Harris-Foulkes estimate   =   -7379.98189156 Ry
     estimated scf accuracy    <       0.00000801 Ry

     iteration # 19     ecut=    50.00 Ry     beta=0.70
     Davidson diagonalization with overlap
     ethr =  1.00E-09,  avg # of iterations =  2.0

     negative rho (up, down):  1.970E+00 0.000E+00

     total cpu time spent up to now is     4926.8 secs

     total energy              =   -7379.98188962 Ry
     Harris-Foulkes estimate   =   -7379.98189126 Ry
     estimated scf accuracy    <       0.00000621 Ry

     iteration # 20     ecut=    50.00 Ry     beta=0.70
     Davidson diagonalization with overlap
     ethr =  7.77E-10,  avg # of iterations =  2.0

     negative rho (up, down):  1.970E+00 0.000E+00

     total cpu time spent up to now is     5080.8 secs

     total energy              =   -7379.98189016 Ry
     Harris-Foulkes estimate   =   -7379.98189081 Ry
     estimated scf accuracy    <       0.00000267 Ry

     iteration # 21     ecut=    50.00 Ry     beta=0.70
     Davidson diagonalization with overlap
     ethr =  3.34E-10,  avg # of iterations =  2.0

     negative rho (up, down):  1.970E+00 0.000E+00

     total cpu time spent up to now is     5241.4 secs

     total energy              =   -7379.98189036 Ry
     Harris-Foulkes estimate   =   -7379.98189073 Ry
     estimated scf accuracy    <       0.00000161 Ry

     iteration # 22     ecut=    50.00 Ry     beta=0.70
     Davidson diagonalization with overlap
     ethr =  2.02E-10,  avg # of iterations =  2.0

     negative rho (up, down):  1.970E+00 0.000E+00

     total cpu time spent up to now is     5396.2 secs

     total energy              =   -7379.98189052 Ry
     Harris-Foulkes estimate   =   -7379.98189059 Ry
     estimated scf accuracy    <       0.00000028 Ry

     iteration # 23     ecut=    50.00 Ry     beta=0.70
     Davidson diagonalization with overlap
     ethr =  3.51E-11,  avg # of iterations =  2.0

     negative rho (up, down):  1.970E+00 0.000E+00

     total cpu time spent up to now is     5552.8 secs

     total energy              =   -7379.98189052 Ry
     Harris-Foulkes estimate   =   -7379.98189059 Ry
     estimated scf accuracy    <       0.00000023 Ry

     iteration # 24     ecut=    50.00 Ry     beta=0.70
     Davidson diagonalization with overlap
     ethr =  2.84E-11,  avg # of iterations =  2.0

     negative rho (up, down):  1.970E+00 0.000E+00

     total cpu time spent up to now is     5717.2 secs

     total energy              =   -7379.98189054 Ry
     Harris-Foulkes estimate   =   -7379.98189058 Ry
     estimated scf accuracy    <       0.00000020 Ry

     iteration # 25     ecut=    50.00 Ry     beta=0.70
     Davidson diagonalization with overlap
     ethr =  2.46E-11,  avg # of iterations =  2.0

     negative rho (up, down):  1.970E+00 0.000E+00

     total cpu time spent up to now is     5873.3 secs

     total energy              =   -7379.98189056 Ry
     Harris-Foulkes estimate   =   -7379.98189057 Ry
     estimated scf accuracy    <       0.00000005 Ry

     iteration # 26     ecut=    50.00 Ry     beta=0.70
     Davidson diagonalization with overlap
     ethr =  6.11E-12,  avg # of iterations =  2.0

     negative rho (up, down):  1.970E+00 0.000E+00

     total cpu time spent up to now is     6029.5 secs

     total energy              =   -7379.98189056 Ry
     Harris-Foulkes estimate   =   -7379.98189057 Ry
     estimated scf accuracy    <       0.00000002 Ry

     iteration # 27     ecut=    50.00 Ry     beta=0.70
     Davidson diagonalization with overlap
     ethr =  2.12E-12,  avg # of iterations =  2.0

     negative rho (up, down):  1.970E+00 0.000E+00

     total cpu time spent up to now is     6200.7 secs

     total energy              =   -7379.98189056 Ry
     Harris-Foulkes estimate   =   -7379.98189057 Ry
     estimated scf accuracy    <       0.00000002 Ry

     iteration # 28     ecut=    50.00 Ry     beta=0.70
     Davidson diagonalization with overlap
     ethr =  2.12E-12,  avg # of iterations =  2.0

     negative rho (up, down):  1.970E+00 0.000E+00

     total cpu time spent up to now is     6356.8 secs

     End of self-consistent calculation

          k = 0.2500 0.2500 0.0833 (167653 PWs)   bands (ev):

   -19.0583  -6.9583  -6.9405  -6.4151  -6.4116  -5.9751  -5.5762  -5.4741
    -5.4720  -5.2512  -5.2506  -5.1628  -5.1527  -5.0222  -5.0130  -4.9034
    -4.8156  -4.8105  -4.7903  -4.7898  -4.6123  -4.6080  -4.6068  -4.5819
    -4.5774  -4.5758  -4.5716  -4.5243  -4.5182  -4.5166  -4.5155  -4.4524
    -4.4245  -4.4240  -4.3773  -4.3640  -4.3626  -4.3315  -4.3260  -4.3129
    -4.3077  -4.2893  -4.2892  -4.2581  -4.2206  -4.2199  -4.2183  -4.2138
    -4.2135  -4.1856  -4.1587  -4.1560  -4.1243  -4.1229  -4.1210  -4.1197
    -4.1178  -4.1110  -4.0920  -4.0785  -4.0206  -4.0185  -3.9894  -3.9634
    -3.9570  -3.9506  -3.9499  -3.9277  -3.9268  -3.9165  -3.8658  -3.8648
    -3.8629  -3.8587  -3.7874  -3.7730  -3.7589  -3.7509  -3.7287  -3.7168
    -3.6994  -3.6764  -3.6760  -3.6334  -3.6313  -3.6303  -3.6290  -3.6108
    -3.6033  -3.5460  -3.5233  -3.5226  -3.5060  -3.5009  -3.4908  -3.4775
    -3.4762  -3.4714  -3.4702  -3.4568  -3.4264  -3.4233  -3.4039  -3.3852
    -3.3663  -3.3432  -3.3334  -3.3196  -3.2932  -3.2735  -3.2730  -3.2367
    -3.2127  -3.2120  -3.2112  -3.2083  -3.2069  -3.1962  -3.1694  -3.1607
    -3.1336  -3.1331  -3.1123  -3.0881  -3.0854  -3.0844  -3.0790  -3.0771
    -3.0741  -3.0734  -3.0402  -3.0382  -3.0369  -3.0314  -3.0275  -3.0219
    -2.9694  -2.9686  -2.9632  -2.9609  -2.9396  -2.9379  -2.9333  -2.8442
    -2.8371  -2.8342  -2.8293  -2.8248  -2.8196  -2.8185  -2.8174  -2.8095
    -2.8081  -2.7993  -2.7909  -2.7870  -2.7830  -2.7810  -2.7735  -2.7661
    -2.7650  -2.7448  -2.7327  -2.7322  -2.7182  -2.7174  -2.7007  -2.6960
    -2.6917  -2.6908  -2.6703  -2.6591  -2.6567  -2.6527  -2.6459  -2.6181
    -2.6162  -2.6100  -2.5594  -2.5536  -2.5425  -2.5405  -2.5273  -2.5264
    -2.5045  -2.5007  -2.4975  -2.4865  -2.4845  -2.4738  -2.4730  -2.4601
    -2.4560  -2.4309  -2.4298  -2.4208  -2.4197  -2.4109  -2.4091  -2.3910
    -2.3764  -2.3539  -2.2942  -2.2896  -2.2696  -2.2679  -2.2575  -2.2512
    -2.2059  -2.2049  -2.1883  -2.1726  -2.1616  -2.1587  -2.1410  -2.1241
    -2.1206  -2.1104  -2.1039  -2.0845  -2.0768  -2.0663  -2.0590  -2.0579
    -2.0538  -2.0519  -2.0436  -2.0232  -2.0206  -2.0187  -2.0170  -2.0157
    -2.0133  -2.0124  -2.0007  -1.9825  -1.9784  -1.9774  -1.9701  -1.9603
    -1.9576  -1.9568  -1.9530  -1.9495  -1.9475  -1.9115  -1.9094  -1.8685
    -1.8505  -1.8488  -1.8044  -1.8034  -1.8028  -1.7938  -1.7900  -1.7780
    -1.7766  -1.7712  -1.7686  -1.7592  -1.7539  -1.7423  -1.7389  -1.7042
    -1.7013  -1.6840  -1.6672  -1.6633  -1.6261  -1.6216  -1.5738  -1.5715
    -1.5541  -1.5420  -1.5322  -1.5261  -1.5237  -1.5190  -1.5099  -1.5028
    -1.5012  -1.4985  -1.4958  -1.4951  -1.4935  -1.4927  -1.4886  -1.4666
    -1.4630  -1.4414  -1.4346  -1.4322  -1.4156  -1.4101  -1.4060  -1.4042
    -1.4010  -1.3898  -1.3646  -1.3623  -1.3423  -1.3375  -1.3336  -1.3191
    -1.3097  -1.3065  -1.2824  -1.2764  -1.2725  -1.2666  -1.2532  -1.2315
    -1.2273  -1.2193  -1.2184  -1.2165  -1.1947  -1.1923  -1.1860  -1.1783
    -1.1716  -1.1645  -1.1594  -1.1562  -1.1550  -1.1459  -1.1439  -1.1347
    -1.1288  -1.1266  -1.1231  -1.1182  -1.1139  -1.1010  -1.0758  -1.0581
    -1.0567  -1.0553  -1.0536  -1.0479  -1.0373  -1.0194  -1.0092  -0.9946
    -0.9878  -0.9848  -0.9803  -0.9745  -0.9724  -0.9627  -0.9432  -0.9281
    -0.9163  -0.9157  -0.9046  -0.8966  -0.8950  -0.8800  -0.8574  -0.8480
    -0.8328  -0.8292  -0.7934  -0.7930  -0.7898  -0.7870  -0.7850  -0.7825
    -0.7812  -0.7804  -0.7749  -0.7746  -0.7438  -0.7416  -0.7389  -0.7369
    -0.7364  -0.7262  -0.7239  -0.7113  -0.6958  -0.4409  -0.4240  -0.3768
    -0.3723  -0.3501  -0.2906  -0.1400  -0.1388  -0.0990   0.1754   0.1806
     0.5185   0.5227   0.5592   0.5624   0.6103   0.6125   0.7726   0.7763
     0.8973   0.9015   1.0220   1.5113   1.5497   1.5573   1.5910   1.5934
     1.7316   1.7370   1.7830   1.7890   1.9644   1.9692   2.2570   2.2790
     2.2819   2.3020   2.7356   2.7389   2.7570   2.7597   2.7753   2.7777
     2.8398   2.8428   3.0078   3.1158   3.1248   3.3013   3.3120   3.4158
     3.4805   3.4899   3.7771   3.7922   3.8438   3.8466   3.8520   3.9886
     3.9938   4.0200   4.0354   4.2807   4.2915   4.3304   4.3313   4.4326
     4.4422   4.5096   4.5111   4.8087   5.3812   5.3908   5.4765   5.4939
     5.5861   5.6003   5.6720   5.6731   5.6819   5.6865   5.7964   5.8035
     5.8425   6.0135   6.0742   6.0866   6.0938   6.0986   6.1029   6.1173
     6.2193   6.2280   6.2991   6.3054   6.4213   6.4374   6.4496   6.4569

          k = 0.2500 0.2500-0.2500 (167588 PWs)   bands (ev):

   -19.0583  -6.9583  -6.9405  -6.4151  -6.4116  -5.9751  -5.5762  -5.4741
    -5.4720  -5.2512  -5.2506  -5.1628  -5.1527  -5.0222  -5.0130  -4.9034
    -4.8156  -4.8105  -4.7903  -4.7898  -4.6123  -4.6080  -4.6067  -4.5819
    -4.5774  -4.5758  -4.5716  -4.5243  -4.5182  -4.5166  -4.5155  -4.4524
    -4.4245  -4.4240  -4.3773  -4.3640  -4.3626  -4.3315  -4.3260  -4.3129
    -4.3077  -4.2893  -4.2892  -4.2581  -4.2206  -4.2199  -4.2183  -4.2138
    -4.2135  -4.1856  -4.1587  -4.1560  -4.1243  -4.1229  -4.1210  -4.1197
    -4.1178  -4.1110  -4.0920  -4.0785  -4.0206  -4.0185  -3.9894  -3.9634
    -3.9570  -3.9506  -3.9499  -3.9277  -3.9267  -3.9165  -3.8658  -3.8648
    -3.8629  -3.8587  -3.7874  -3.7730  -3.7589  -3.7509  -3.7287  -3.7168
    -3.6994  -3.6764  -3.6760  -3.6334  -3.6313  -3.6303  -3.6290  -3.6108
    -3.6033  -3.5460  -3.5233  -3.5226  -3.5060  -3.5009  -3.4908  -3.4775
    -3.4762  -3.4714  -3.4702  -3.4568  -3.4264  -3.4233  -3.4039  -3.3852
    -3.3663  -3.3432  -3.3334  -3.3196  -3.2932  -3.2735  -3.2730  -3.2367
    -3.2127  -3.2120  -3.2111  -3.2083  -3.2069  -3.1962  -3.1694  -3.1607
    -3.1336  -3.1331  -3.1123  -3.0881  -3.0854  -3.0844  -3.0790  -3.0771
    -3.0741  -3.0734  -3.0402  -3.0381  -3.0369  -3.0314  -3.0275  -3.0219
    -2.9694  -2.9686  -2.9632  -2.9609  -2.9396  -2.9379  -2.9333  -2.8442
    -2.8371  -2.8342  -2.8293  -2.8248  -2.8196  -2.8185  -2.8174  -2.8095
    -2.8081  -2.7993  -2.7909  -2.7870  -2.7830  -2.7810  -2.7735  -2.7661
    -2.7650  -2.7448  -2.7327  -2.7322  -2.7182  -2.7174  -2.7007  -2.6960
    -2.6917  -2.6908  -2.6703  -2.6591  -2.6567  -2.6527  -2.6459  -2.6181
    -2.6162  -2.6100  -2.5594  -2.5536  -2.5425  -2.5405  -2.5273  -2.5264
    -2.5045  -2.5007  -2.4975  -2.4865  -2.4845  -2.4738  -2.4730  -2.4601
    -2.4560  -2.4309  -2.4298  -2.4208  -2.4197  -2.4109  -2.4091  -2.3910
    -2.3764  -2.3539  -2.2942  -2.2896  -2.2696  -2.2679  -2.2575  -2.2512
    -2.2059  -2.2049  -2.1883  -2.1726  -2.1616  -2.1587  -2.1410  -2.1241
    -2.1206  -2.1104  -2.1039  -2.0845  -2.0768  -2.0663  -2.0590  -2.0579
    -2.0538  -2.0519  -2.0436  -2.0232  -2.0206  -2.0187  -2.0170  -2.0157
    -2.0133  -2.0124  -2.0008  -1.9825  -1.9784  -1.9774  -1.9701  -1.9603
    -1.9576  -1.9568  -1.9530  -1.9495  -1.9475  -1.9115  -1.9094  -1.8685
    -1.8505  -1.8488  -1.8044  -1.8034  -1.8028  -1.7938  -1.7900  -1.7780
    -1.7765  -1.7712  -1.7685  -1.7592  -1.7539  -1.7423  -1.7389  -1.7042
    -1.7013  -1.6840  -1.6672  -1.6633  -1.6261  -1.6216  -1.5738  -1.5715
    -1.5541  -1.5420  -1.5322  -1.5261  -1.5237  -1.5190  -1.5099  -1.5028
    -1.5012  -1.4985  -1.4958  -1.4951  -1.4935  -1.4927  -1.4886  -1.4666
    -1.4630  -1.4414  -1.4346  -1.4322  -1.4156  -1.4101  -1.4060  -1.4042
    -1.4010  -1.3898  -1.3646  -1.3623  -1.3423  -1.3375  -1.3336  -1.3191
    -1.3097  -1.3065  -1.2824  -1.2764  -1.2725  -1.2666  -1.2532  -1.2314
    -1.2273  -1.2193  -1.2184  -1.2165  -1.1947  -1.1923  -1.1860  -1.1783
    -1.1716  -1.1645  -1.1594  -1.1562  -1.1550  -1.1459  -1.1439  -1.1347
    -1.1288  -1.1266  -1.1231  -1.1182  -1.1139  -1.1010  -1.0758  -1.0581
    -1.0567  -1.0553  -1.0536  -1.0479  -1.0373  -1.0194  -1.0092  -0.9946
    -0.9878  -0.9848  -0.9803  -0.9745  -0.9724  -0.9627  -0.9432  -0.9281
    -0.9163  -0.9157  -0.9046  -0.8966  -0.8950  -0.8800  -0.8574  -0.8480
    -0.8328  -0.8292  -0.7934  -0.7930  -0.7898  -0.7870  -0.7850  -0.7825
    -0.7812  -0.7804  -0.7749  -0.7746  -0.7438  -0.7416  -0.7389  -0.7369
    -0.7364  -0.7262  -0.7239  -0.7113  -0.6958  -0.4409  -0.4240  -0.3768
    -0.3723  -0.3501  -0.2906  -0.1400  -0.1388  -0.0990   0.1755   0.1806
     0.5185   0.5227   0.5592   0.5624   0.6103   0.6126   0.7726   0.7763
     0.8973   0.9015   1.0220   1.5113   1.5497   1.5573   1.5910   1.5934
     1.7316   1.7370   1.7830   1.7890   1.9644   1.9692   2.2570   2.2790
     2.2819   2.3020   2.7356   2.7389   2.7570   2.7597   2.7753   2.7777
     2.8398   2.8428   3.0078   3.1158   3.1248   3.3013   3.3120   3.4158
     3.4805   3.4899   3.7771   3.7922   3.8438   3.8466   3.8520   3.9886
     3.9938   4.0201   4.0354   4.2807   4.2915   4.3304   4.3313   4.4326
     4.4422   4.5096   4.5111   4.8088   5.3812   5.3908   5.4766   5.4940
     5.5860   5.6003   5.6720   5.6731   5.6819   5.6865   5.7875   5.7981
     5.8035   6.0739   6.0865   6.0937   6.0980   6.1028   6.1173   6.1734
     6.1778   6.1953   6.2985   6.3055   6.4066   6.4273   6.4374   6.4873

          k =-0.2500-0.2500 0.0833 (167653 PWs)   bands (ev):

   -19.0583  -6.9583  -6.9405  -6.4151  -6.4116  -5.9751  -5.5762  -5.4741
    -5.4720  -5.2512  -5.2506  -5.1628  -5.1527  -5.0222  -5.0130  -4.9034
    -4.8156  -4.8105  -4.7903  -4.7898  -4.6123  -4.6080  -4.6068  -4.5819
    -4.5774  -4.5758  -4.5716  -4.5243  -4.5182  -4.5166  -4.5155  -4.4524
    -4.4245  -4.4240  -4.3773  -4.3640  -4.3626  -4.3315  -4.3260  -4.3129
    -4.3077  -4.2893  -4.2892  -4.2581  -4.2206  -4.2199  -4.2183  -4.2138
    -4.2135  -4.1856  -4.1587  -4.1560  -4.1243  -4.1229  -4.1210  -4.1197
    -4.1178  -4.1110  -4.0920  -4.0785  -4.0206  -4.0185  -3.9894  -3.9634
    -3.9570  -3.9506  -3.9499  -3.9277  -3.9268  -3.9165  -3.8658  -3.8648
    -3.8629  -3.8587  -3.7874  -3.7730  -3.7589  -3.7509  -3.7287  -3.7168
    -3.6994  -3.6764  -3.6760  -3.6334  -3.6313  -3.6303  -3.6290  -3.6108
    -3.6033  -3.5460  -3.5233  -3.5226  -3.5060  -3.5009  -3.4908  -3.4775
    -3.4762  -3.4714  -3.4702  -3.4568  -3.4264  -3.4233  -3.4039  -3.3852
    -3.3663  -3.3432  -3.3334  -3.3196  -3.2932  -3.2735  -3.2730  -3.2367
    -3.2127  -3.2120  -3.2112  -3.2083  -3.2069  -3.1962  -3.1694  -3.1607
    -3.1336  -3.1331  -3.1123  -3.0881  -3.0854  -3.0844  -3.0790  -3.0771
    -3.0741  -3.0734  -3.0402  -3.0382  -3.0369  -3.0314  -3.0275  -3.0219
    -2.9694  -2.9686  -2.9632  -2.9609  -2.9396  -2.9379  -2.9333  -2.8442
    -2.8371  -2.8342  -2.8293  -2.8248  -2.8196  -2.8185  -2.8174  -2.8095
    -2.8081  -2.7993  -2.7909  -2.7870  -2.7830  -2.7810  -2.7735  -2.7661
    -2.7650  -2.7448  -2.7327  -2.7322  -2.7182  -2.7174  -2.7007  -2.6960
    -2.6917  -2.6908  -2.6703  -2.6591  -2.6567  -2.6527  -2.6459  -2.6181
    -2.6162  -2.6100  -2.5594  -2.5536  -2.5425  -2.5405  -2.5273  -2.5264
    -2.5045  -2.5007  -2.4975  -2.4865  -2.4845  -2.4738  -2.4730  -2.4601
    -2.4560  -2.4309  -2.4298  -2.4208  -2.4197  -2.4109  -2.4091  -2.3910
    -2.3764  -2.3539  -2.2942  -2.2896  -2.2696  -2.2679  -2.2575  -2.2512
    -2.2059  -2.2049  -2.1883  -2.1726  -2.1616  -2.1587  -2.1410  -2.1241
    -2.1206  -2.1104  -2.1039  -2.0845  -2.0768  -2.0663  -2.0590  -2.0579
    -2.0538  -2.0519  -2.0436  -2.0232  -2.0206  -2.0187  -2.0170  -2.0157
    -2.0133  -2.0124  -2.0007  -1.9825  -1.9784  -1.9774  -1.9701  -1.9603
    -1.9576  -1.9568  -1.9530  -1.9495  -1.9475  -1.9115  -1.9094  -1.8685
    -1.8505  -1.8488  -1.8044  -1.8034  -1.8028  -1.7938  -1.7900  -1.7780
    -1.7766  -1.7712  -1.7686  -1.7592  -1.7539  -1.7423  -1.7389  -1.7042
    -1.7013  -1.6840  -1.6672  -1.6633  -1.6261  -1.6216  -1.5738  -1.5715
    -1.5541  -1.5420  -1.5322  -1.5261  -1.5237  -1.5190  -1.5099  -1.5028
    -1.5012  -1.4985  -1.4958  -1.4951  -1.4935  -1.4927  -1.4886  -1.4666
    -1.4630  -1.4414  -1.4346  -1.4322  -1.4156  -1.4101  -1.4060  -1.4042
    -1.4010  -1.3898  -1.3646  -1.3623  -1.3423  -1.3375  -1.3336  -1.3191
    -1.3097  -1.3065  -1.2824  -1.2764  -1.2725  -1.2666  -1.2532  -1.2315
    -1.2273  -1.2193  -1.2184  -1.2165  -1.1947  -1.1923  -1.1860  -1.1783
    -1.1716  -1.1645  -1.1594  -1.1562  -1.1550  -1.1459  -1.1439  -1.1347
    -1.1288  -1.1266  -1.1231  -1.1182  -1.1139  -1.1010  -1.0758  -1.0581
    -1.0567  -1.0553  -1.0536  -1.0479  -1.0373  -1.0194  -1.0092  -0.9946
    -0.9878  -0.9848  -0.9803  -0.9745  -0.9724  -0.9627  -0.9432  -0.9281
    -0.9163  -0.9157  -0.9046  -0.8966  -0.8950  -0.8800  -0.8574  -0.8480
    -0.8328  -0.8292  -0.7934  -0.7930  -0.7898  -0.7870  -0.7850  -0.7825
    -0.7812  -0.7804  -0.7749  -0.7746  -0.7438  -0.7416  -0.7389  -0.7369
    -0.7364  -0.7262  -0.7239  -0.7113  -0.6958  -0.4409  -0.4240  -0.3768
    -0.3723  -0.3501  -0.2906  -0.1400  -0.1388  -0.0990   0.1754   0.1806
     0.5185   0.5227   0.5592   0.5624   0.6103   0.6125   0.7726   0.7763
     0.8973   0.9015   1.0220   1.5113   1.5497   1.5573   1.5910   1.5934
     1.7316   1.7370   1.7830   1.7890   1.9644   1.9692   2.2570   2.2790
     2.2819   2.3020   2.7356   2.7389   2.7570   2.7597   2.7753   2.7777
     2.8398   2.8428   3.0078   3.1158   3.1248   3.3013   3.3120   3.4158
     3.4805   3.4899   3.7771   3.7922   3.8438   3.8466   3.8520   3.9886
     3.9938   4.0200   4.0354   4.2807   4.2915   4.3304   4.3313   4.4326
     4.4422   4.5096   4.5111   4.8087   5.3812   5.3908   5.4765   5.4939
     5.5861   5.6003   5.6720   5.6731   5.6819   5.6865   5.7964   5.8035
     5.8425   6.0135   6.0742   6.0866   6.0938   6.0986   6.1029   6.1173
     6.2194   6.2279   6.2991   6.3054   6.4214   6.4373   6.4495   6.4570

          k =-0.2500 0.2500-0.0833 (167653 PWs)   bands (ev):

   -19.0583  -6.9592  -6.9395  -6.4150  -6.4118  -5.9750  -5.5761  -5.4739
    -5.4720  -5.2511  -5.2508  -5.1627  -5.1529  -5.0222  -5.0129  -4.9033
    -4.8158  -4.8105  -4.7903  -4.7899  -4.6123  -4.6079  -4.6067  -4.5819
    -4.5773  -4.5760  -4.5716  -4.5242  -4.5182  -4.5165  -4.5156  -4.4523
    -4.4245  -4.4240  -4.3774  -4.3640  -4.3626  -4.3312  -4.3259  -4.3128
    -4.3077  -4.2893  -4.2892  -4.2585  -4.2208  -4.2199  -4.2184  -4.2137
    -4.2135  -4.1856  -4.1583  -4.1560  -4.1245  -4.1228  -4.1209  -4.1196
    -4.1179  -4.1111  -4.0914  -4.0784  -4.0203  -4.0187  -3.9894  -3.9635
    -3.9573  -3.9510  -3.9495  -3.9276  -3.9267  -3.9164  -3.8658  -3.8649
    -3.8631  -3.8587  -3.7877  -3.7730  -3.7583  -3.7509  -3.7288  -3.7168
    -3.6994  -3.6767  -3.6760  -3.6336  -3.6314  -3.6303  -3.6289  -3.6119
    -3.6034  -3.5468  -3.5233  -3.5226  -3.5061  -3.5008  -3.4908  -3.4774
    -3.4762  -3.4716  -3.4702  -3.4552  -3.4264  -3.4231  -3.4038  -3.3852
    -3.3662  -3.3428  -3.3346  -3.3196  -3.2922  -3.2730  -3.2725  -3.2368
    -3.2127  -3.2120  -3.2111  -3.2082  -3.2069  -3.1969  -3.1694  -3.1615
    -3.1335  -3.1331  -3.1123  -3.0881  -3.0855  -3.0843  -3.0792  -3.0770
    -3.0741  -3.0734  -3.0402  -3.0382  -3.0368  -3.0313  -3.0273  -3.0217
    -2.9692  -2.9683  -2.9634  -2.9608  -2.9396  -2.9378  -2.9338  -2.8442
    -2.8372  -2.8341  -2.8293  -2.8247  -2.8195  -2.8185  -2.8172  -2.8095
    -2.8081  -2.7994  -2.7909  -2.7869  -2.7830  -2.7808  -2.7735  -2.7661
    -2.7647  -2.7449  -2.7327  -2.7322  -2.7182  -2.7174  -2.7007  -2.6960
    -2.6916  -2.6908  -2.6703  -2.6590  -2.6570  -2.6527  -2.6451  -2.6182
    -2.6162  -2.6103  -2.5592  -2.5537  -2.5429  -2.5403  -2.5273  -2.5265
    -2.5044  -2.5006  -2.4976  -2.4865  -2.4845  -2.4742  -2.4732  -2.4603
    -2.4560  -2.4310  -2.4299  -2.4210  -2.4197  -2.4109  -2.4092  -2.3905
    -2.3767  -2.3539  -2.2943  -2.2894  -2.2695  -2.2678  -2.2575  -2.2512
    -2.2059  -2.2050  -2.1884  -2.1726  -2.1620  -2.1586  -2.1412  -2.1241
    -2.1205  -2.1105  -2.1038  -2.0842  -2.0763  -2.0663  -2.0591  -2.0579
    -2.0538  -2.0518  -2.0433  -2.0232  -2.0209  -2.0186  -2.0167  -2.0159
    -2.0132  -2.0124  -2.0009  -1.9827  -1.9785  -1.9775  -1.9700  -1.9605
    -1.9577  -1.9569  -1.9531  -1.9497  -1.9475  -1.9117  -1.9095  -1.8684
    -1.8505  -1.8490  -1.8044  -1.8034  -1.8027  -1.7933  -1.7899  -1.7777
    -1.7764  -1.7711  -1.7680  -1.7591  -1.7540  -1.7419  -1.7390  -1.7043
    -1.7011  -1.6840  -1.6686  -1.6634  -1.6260  -1.6211  -1.5741  -1.5714
    -1.5539  -1.5462  -1.5324  -1.5261  -1.5237  -1.5184  -1.5092  -1.5021
    -1.5010  -1.4986  -1.4957  -1.4950  -1.4935  -1.4926  -1.4885  -1.4667
    -1.4630  -1.4399  -1.4347  -1.4323  -1.4162  -1.4099  -1.4064  -1.4043
    -1.4006  -1.3886  -1.3642  -1.3614  -1.3419  -1.3373  -1.3333  -1.3193
    -1.3097  -1.3059  -1.2854  -1.2761  -1.2728  -1.2665  -1.2532  -1.2292
    -1.2271  -1.2194  -1.2186  -1.2165  -1.1945  -1.1917  -1.1856  -1.1781
    -1.1712  -1.1649  -1.1592  -1.1563  -1.1551  -1.1462  -1.1456  -1.1344
    -1.1292  -1.1265  -1.1228  -1.1184  -1.1138  -1.1014  -1.0801  -1.0576
    -1.0568  -1.0557  -1.0536  -1.0478  -1.0372  -1.0192  -1.0094  -0.9962
    -0.9878  -0.9840  -0.9803  -0.9760  -0.9725  -0.9627  -0.9393  -0.9283
    -0.9164  -0.9157  -0.9061  -0.8966  -0.8951  -0.8798  -0.8576  -0.8481
    -0.8329  -0.8292  -0.7934  -0.7928  -0.7896  -0.7870  -0.7850  -0.7825
    -0.7810  -0.7804  -0.7749  -0.7745  -0.7432  -0.7416  -0.7386  -0.7371
    -0.7360  -0.7265  -0.7237  -0.7112  -0.6956  -0.4408  -0.4240  -0.3761
    -0.3720  -0.3502  -0.2903  -0.1398  -0.1387  -0.1003   0.1759   0.1803
     0.5186   0.5221   0.5596   0.5621   0.6103   0.6128   0.7743   0.7762
     0.8972   0.9014   1.0217   1.5108   1.5484   1.5574   1.5913   1.5930
     1.7308   1.7389   1.7839   1.7883   1.9652   1.9685   2.2557   2.2780
     2.2824   2.3021   2.7333   2.7402   2.7575   2.7592   2.7752   2.7778
     2.8404   2.8424   3.0075   3.1190   3.1249   3.3048   3.3117   3.4152
     3.4811   3.4886   3.7785   3.7917   3.8411   3.8465   3.8518   3.9883
     3.9946   4.0183   4.0377   4.2818   4.2907   4.3289   4.3320   4.4337
     4.4409   4.5055   4.5119   4.8080   5.3833   5.3924   5.4739   5.4955
     5.5869   5.6004   5.6693   5.6742   5.6837   5.6869   5.8001   5.8029
     5.8422   6.0133   6.0760   6.0880   6.0927   6.0978   6.1034   6.1152
     6.2152   6.2302   6.2927   6.3098   6.4234   6.4385   6.4509   6.4555

          k = 0.2500-0.2500-0.0833 (167653 PWs)   bands (ev):

   -19.0583  -6.9592  -6.9395  -6.4150  -6.4118  -5.9750  -5.5761  -5.4739
    -5.4720  -5.2511  -5.2508  -5.1627  -5.1529  -5.0222  -5.0129  -4.9033
    -4.8158  -4.8105  -4.7903  -4.7899  -4.6123  -4.6079  -4.6067  -4.5819
    -4.5773  -4.5760  -4.5716  -4.5242  -4.5182  -4.5165  -4.5156  -4.4523
    -4.4245  -4.4240  -4.3774  -4.3640  -4.3626  -4.3312  -4.3259  -4.3128
    -4.3077  -4.2893  -4.2892  -4.2585  -4.2208  -4.2199  -4.2184  -4.2137
    -4.2135  -4.1856  -4.1583  -4.1560  -4.1245  -4.1228  -4.1209  -4.1196
    -4.1179  -4.1111  -4.0914  -4.0784  -4.0203  -4.0187  -3.9894  -3.9635
    -3.9573  -3.9510  -3.9495  -3.9276  -3.9267  -3.9164  -3.8658  -3.8649
    -3.8631  -3.8587  -3.7877  -3.7730  -3.7583  -3.7509  -3.7288  -3.7168
    -3.6994  -3.6767  -3.6760  -3.6336  -3.6314  -3.6303  -3.6289  -3.6119
    -3.6034  -3.5468  -3.5233  -3.5226  -3.5061  -3.5008  -3.4908  -3.4774
    -3.4762  -3.4716  -3.4702  -3.4552  -3.4264  -3.4231  -3.4038  -3.3852
    -3.3662  -3.3428  -3.3346  -3.3196  -3.2922  -3.2730  -3.2725  -3.2368
    -3.2127  -3.2120  -3.2111  -3.2082  -3.2069  -3.1969  -3.1694  -3.1615
    -3.1335  -3.1331  -3.1123  -3.0881  -3.0855  -3.0843  -3.0792  -3.0770
    -3.0741  -3.0734  -3.0402  -3.0382  -3.0368  -3.0313  -3.0273  -3.0217
    -2.9692  -2.9683  -2.9634  -2.9608  -2.9396  -2.9378  -2.9338  -2.8442
    -2.8372  -2.8341  -2.8293  -2.8247  -2.8195  -2.8185  -2.8172  -2.8095
    -2.8081  -2.7994  -2.7909  -2.7869  -2.7830  -2.7808  -2.7735  -2.7661
    -2.7647  -2.7449  -2.7327  -2.7322  -2.7182  -2.7174  -2.7007  -2.6960
    -2.6916  -2.6908  -2.6703  -2.6590  -2.6570  -2.6527  -2.6451  -2.6182
    -2.6162  -2.6103  -2.5592  -2.5537  -2.5429  -2.5403  -2.5273  -2.5265
    -2.5044  -2.5006  -2.4976  -2.4865  -2.4845  -2.4742  -2.4732  -2.4603
    -2.4560  -2.4310  -2.4299  -2.4210  -2.4197  -2.4109  -2.4092  -2.3905
    -2.3767  -2.3539  -2.2943  -2.2894  -2.2695  -2.2678  -2.2575  -2.2512
    -2.2059  -2.2050  -2.1884  -2.1726  -2.1620  -2.1586  -2.1412  -2.1241
    -2.1205  -2.1105  -2.1038  -2.0842  -2.0763  -2.0663  -2.0591  -2.0579
    -2.0538  -2.0518  -2.0433  -2.0232  -2.0209  -2.0186  -2.0167  -2.0159
    -2.0132  -2.0124  -2.0009  -1.9827  -1.9785  -1.9775  -1.9700  -1.9605
    -1.9577  -1.9569  -1.9531  -1.9497  -1.9475  -1.9117  -1.9095  -1.8684
    -1.8505  -1.8490  -1.8044  -1.8034  -1.8027  -1.7933  -1.7899  -1.7777
    -1.7764  -1.7711  -1.7680  -1.7591  -1.7540  -1.7419  -1.7390  -1.7043
    -1.7011  -1.6840  -1.6686  -1.6634  -1.6260  -1.6211  -1.5741  -1.5714
    -1.5539  -1.5462  -1.5324  -1.5261  -1.5237  -1.5184  -1.5092  -1.5021
    -1.5010  -1.4986  -1.4957  -1.4950  -1.4935  -1.4926  -1.4885  -1.4667
    -1.4630  -1.4399  -1.4347  -1.4323  -1.4162  -1.4099  -1.4064  -1.4043
    -1.4006  -1.3886  -1.3642  -1.3614  -1.3419  -1.3373  -1.3333  -1.3193
    -1.3097  -1.3059  -1.2854  -1.2761  -1.2728  -1.2665  -1.2532  -1.2292
    -1.2271  -1.2194  -1.2186  -1.2165  -1.1945  -1.1917  -1.1856  -1.1781
    -1.1712  -1.1649  -1.1592  -1.1563  -1.1551  -1.1462  -1.1456  -1.1344
    -1.1292  -1.1265  -1.1228  -1.1184  -1.1138  -1.1014  -1.0801  -1.0576
    -1.0568  -1.0557  -1.0536  -1.0478  -1.0372  -1.0192  -1.0094  -0.9962
    -0.9878  -0.9840  -0.9803  -0.9760  -0.9725  -0.9627  -0.9393  -0.9283
    -0.9164  -0.9157  -0.9061  -0.8966  -0.8951  -0.8798  -0.8576  -0.8481
    -0.8329  -0.8292  -0.7934  -0.7928  -0.7896  -0.7870  -0.7850  -0.7825
    -0.7810  -0.7804  -0.7749  -0.7745  -0.7432  -0.7416  -0.7386  -0.7371
    -0.7360  -0.7265  -0.7237  -0.7112  -0.6956  -0.4408  -0.4240  -0.3761
    -0.3720  -0.3502  -0.2903  -0.1398  -0.1387  -0.1003   0.1759   0.1803
     0.5186   0.5221   0.5596   0.5621   0.6103   0.6128   0.7743   0.7762
     0.8972   0.9014   1.0217   1.5108   1.5484   1.5574   1.5913   1.5930
     1.7308   1.7389   1.7839   1.7883   1.9652   1.9685   2.2557   2.2780
     2.2824   2.3021   2.7333   2.7402   2.7575   2.7592   2.7752   2.7778
     2.8404   2.8424   3.0075   3.1190   3.1249   3.3048   3.3117   3.4152
     3.4811   3.4886   3.7785   3.7917   3.8411   3.8465   3.8518   3.9883
     3.9946   4.0183   4.0377   4.2818   4.2907   4.3289   4.3320   4.4337
     4.4409   4.5055   4.5119   4.8080   5.3833   5.3924   5.4739   5.4955
     5.5869   5.6004   5.6693   5.6742   5.6837   5.6869   5.8001   5.8029
     5.8422   6.0134   6.0759   6.0880   6.0927   6.0978   6.1034   6.1152
     6.2151   6.2302   6.2927   6.3098   6.4232   6.4385   6.4512   6.4554

          k =-0.2500 0.2500 0.2500 (167588 PWs)   bands (ev):

   -19.0583  -6.9592  -6.9395  -6.4150  -6.4118  -5.9750  -5.5761  -5.4739
    -5.4720  -5.2511  -5.2508  -5.1627  -5.1529  -5.0222  -5.0129  -4.9033
    -4.8158  -4.8105  -4.7903  -4.7899  -4.6123  -4.6079  -4.6067  -4.5819
    -4.5773  -4.5760  -4.5716  -4.5242  -4.5182  -4.5165  -4.5156  -4.4523
    -4.4245  -4.4240  -4.3774  -4.3640  -4.3626  -4.3312  -4.3259  -4.3128
    -4.3077  -4.2893  -4.2892  -4.2585  -4.2208  -4.2199  -4.2184  -4.2137
    -4.2135  -4.1856  -4.1583  -4.1560  -4.1245  -4.1228  -4.1209  -4.1196
    -4.1179  -4.1111  -4.0914  -4.0784  -4.0203  -4.0187  -3.9894  -3.9635
    -3.9572  -3.9510  -3.9495  -3.9276  -3.9267  -3.9164  -3.8658  -3.8649
    -3.8631  -3.8587  -3.7877  -3.7730  -3.7584  -3.7509  -3.7288  -3.7168
    -3.6994  -3.6767  -3.6760  -3.6336  -3.6314  -3.6303  -3.6289  -3.6118
    -3.6034  -3.5468  -3.5233  -3.5226  -3.5061  -3.5008  -3.4908  -3.4774
    -3.4762  -3.4716  -3.4702  -3.4552  -3.4264  -3.4230  -3.4038  -3.3852
    -3.3662  -3.3428  -3.3346  -3.3196  -3.2922  -3.2730  -3.2725  -3.2368
    -3.2127  -3.2120  -3.2111  -3.2082  -3.2069  -3.1969  -3.1694  -3.1615
    -3.1335  -3.1331  -3.1123  -3.0881  -3.0855  -3.0843  -3.0792  -3.0770
    -3.0741  -3.0734  -3.0402  -3.0382  -3.0368  -3.0313  -3.0273  -3.0217
    -2.9692  -2.9683  -2.9634  -2.9608  -2.9396  -2.9378  -2.9338  -2.8442
    -2.8372  -2.8341  -2.8293  -2.8247  -2.8195  -2.8185  -2.8172  -2.8095
    -2.8081  -2.7994  -2.7909  -2.7869  -2.7830  -2.7808  -2.7735  -2.7661
    -2.7647  -2.7449  -2.7327  -2.7322  -2.7182  -2.7174  -2.7007  -2.6960
    -2.6916  -2.6908  -2.6703  -2.6590  -2.6570  -2.6527  -2.6451  -2.6182
    -2.6162  -2.6103  -2.5592  -2.5537  -2.5429  -2.5403  -2.5273  -2.5265
    -2.5044  -2.5006  -2.4976  -2.4865  -2.4845  -2.4742  -2.4732  -2.4603
    -2.4560  -2.4310  -2.4299  -2.4210  -2.4197  -2.4109  -2.4092  -2.3905
    -2.3767  -2.3539  -2.2944  -2.2894  -2.2695  -2.2678  -2.2575  -2.2512
    -2.2059  -2.2050  -2.1884  -2.1726  -2.1620  -2.1586  -2.1412  -2.1241
    -2.1205  -2.1105  -2.1038  -2.0842  -2.0763  -2.0663  -2.0591  -2.0579
    -2.0538  -2.0517  -2.0433  -2.0232  -2.0209  -2.0186  -2.0167  -2.0159
    -2.0132  -2.0124  -2.0009  -1.9827  -1.9785  -1.9775  -1.9700  -1.9605
    -1.9577  -1.9569  -1.9531  -1.9497  -1.9475  -1.9117  -1.9094  -1.8684
    -1.8505  -1.8490  -1.8044  -1.8034  -1.8027  -1.7933  -1.7899  -1.7777
    -1.7764  -1.7711  -1.7680  -1.7591  -1.7540  -1.7419  -1.7390  -1.7043
    -1.7011  -1.6840  -1.6686  -1.6634  -1.6260  -1.6211  -1.5741  -1.5714
    -1.5539  -1.5462  -1.5324  -1.5261  -1.5237  -1.5184  -1.5092  -1.5021
    -1.5010  -1.4986  -1.4957  -1.4950  -1.4935  -1.4926  -1.4885  -1.4667
    -1.4630  -1.4399  -1.4347  -1.4323  -1.4161  -1.4099  -1.4064  -1.4043
    -1.4006  -1.3886  -1.3642  -1.3613  -1.3419  -1.3373  -1.3333  -1.3193
    -1.3097  -1.3059  -1.2854  -1.2761  -1.2728  -1.2665  -1.2532  -1.2292
    -1.2271  -1.2194  -1.2186  -1.2165  -1.1945  -1.1917  -1.1856  -1.1781
    -1.1712  -1.1649  -1.1592  -1.1563  -1.1551  -1.1462  -1.1456  -1.1345
    -1.1292  -1.1264  -1.1228  -1.1184  -1.1138  -1.1014  -1.0801  -1.0576
    -1.0568  -1.0557  -1.0536  -1.0478  -1.0372  -1.0192  -1.0094  -0.9962
    -0.9878  -0.9840  -0.9803  -0.9760  -0.9725  -0.9627  -0.9393  -0.9283
    -0.9164  -0.9157  -0.9060  -0.8966  -0.8951  -0.8798  -0.8576  -0.8481
    -0.8329  -0.8292  -0.7934  -0.7928  -0.7896  -0.7870  -0.7850  -0.7825
    -0.7810  -0.7804  -0.7749  -0.7745  -0.7432  -0.7416  -0.7386  -0.7371
    -0.7360  -0.7265  -0.7237  -0.7112  -0.6956  -0.4408  -0.4240  -0.3761
    -0.3720  -0.3502  -0.2903  -0.1398  -0.1387  -0.1003   0.1759   0.1803
     0.5186   0.5221   0.5596   0.5621   0.6103   0.6128   0.7743   0.7762
     0.8972   0.9014   1.0217   1.5108   1.5484   1.5574   1.5913   1.5930
     1.7308   1.7389   1.7839   1.7883   1.9652   1.9685   2.2557   2.2780
     2.2824   2.3021   2.7333   2.7402   2.7575   2.7592   2.7752   2.7778
     2.8404   2.8424   3.0076   3.1190   3.1249   3.3048   3.3117   3.4152
     3.4811   3.4886   3.7785   3.7917   3.8411   3.8465   3.8518   3.9883
     3.9946   4.0183   4.0377   4.2818   4.2907   4.3289   4.3320   4.4337
     4.4409   4.5055   4.5119   4.8081   5.3833   5.3924   5.4740   5.4956
     5.5869   5.6004   5.6693   5.6742   5.6837   5.6869   5.7890   5.8002
     5.8028   6.0759   6.0878   6.0926   6.0967   6.1033   6.1151   6.1710
     6.1786   6.1956   6.2916   6.3097   6.4085   6.4275   6.4393   6.4871

     the Fermi energy is     0.8445 ev

!    total energy              =   -7379.98189056 Ry
     Harris-Foulkes estimate   =   -7379.98189056 Ry
     estimated scf accuracy    <          1.9E-09 Ry

     The total energy is the sum of the following terms:

     one-electron contribution =  -48869.94516764 Ry
     hartree contribution      =   24981.40818889 Ry
     xc contribution           =   -3556.28429847 Ry
     ewald contribution        =   20064.83810797 Ry
     smearing contrib. (-TS)   =       0.00127869 Ry

     convergence has been achieved in  28 iterations

     Writing output data file 7758315.save

     init_run     :    117.85s CPU    123.08s WALL (       1 calls)
     electrons    :   5906.10s CPU   6233.63s WALL (       1 calls)

     Called by init_run:
     wfcinit      :     96.56s CPU    101.34s WALL (       1 calls)
     potinit      :      2.96s CPU      3.03s WALL (       1 calls)

     Called by electrons:
     c_bands      :   5015.19s CPU   5263.04s WALL (      29 calls)
     sum_band     :    653.57s CPU    726.26s WALL (      29 calls)
     v_of_rho     :     12.12s CPU     13.50s WALL (      29 calls)
     newd         :    229.66s CPU    232.74s WALL (      29 calls)
     mix_rho      :      2.02s CPU      2.41s WALL (      29 calls)

     Called by c_bands:
     init_us_2    :      8.77s CPU      8.97s WALL (     354 calls)
     cegterg      :   4923.14s CPU   5165.17s WALL (     174 calls)

     Called by *egterg:
     h_psi        :   1957.72s CPU   2164.96s WALL (     885 calls)
     s_psi        :    355.23s CPU    356.97s WALL (     885 calls)
     g_psi        :      4.68s CPU      4.61s WALL (     705 calls)
     cdiaghg      :   1489.31s CPU   1493.59s WALL (     873 calls)

     Called by h_psi:
     add_vuspsi   :    355.66s CPU    357.52s WALL (     885 calls)

     General routines
     calbec       :    510.75s CPU    512.95s WALL (    1059 calls)
     fft          :     28.65s CPU     30.95s WALL (     464 calls)
     ffts         :      0.90s CPU      1.10s WALL (      58 calls)
     fftw         :   1386.36s CPU   1618.41s WALL (  467884 calls)
     interpolate  :      2.26s CPU      2.84s WALL (      58 calls)
     davcio       :      0.01s CPU      0.11s WALL (       6 calls)

     Parallel routines
     fft_scatter  :    907.43s CPU   1073.19s WALL (  468406 calls)

     PWSCF        :     1h40m CPU        1h46m WALL


   This run was terminated on:  21:36:28   7Aug2015            

=------------------------------------------------------------------------------=
   JOB DONE.
=------------------------------------------------------------------------------=
