
     Program PWSCF v.5.1.2 starts on  7Aug2015 at 18:10:22 

     This program is part of the open-source Quantum ESPRESSO suite
     for quantum simulation of materials; please cite
         "P. Giannozzi et al., J. Phys.:Condens. Matter 21 395502 (2009);
          URL http://www.quantum-espresso.org", 
     in publications or presentations arising from this work. More details at
     http://www.quantum-espresso.org/quote

     Parallel version (MPI), running on    32 processors
     R & G space division:  proc/nbgrp/npool/nimage =      32
     Reading input from top.O1.Au5859.d.2.7.phi.45.psi.0.in
Warning: card &IONS ignored
Warning: card / ignored
Warning: card &CELL ignored
Warning: card / ignored

     Current dimensions of program PWSCF are:
     Max number of different atomic species (ntypx) = 10
     Max number of k-points (npk) =  40000
     Max angular momentum in pseudopotentials (lmaxx) =  3

     Subspace diagonalization in iterative solution of the eigenvalue problem:
     a serial algorithm will be used


     Parallelization info
     --------------------
     sticks:   dense  smooth     PW     G-vecs:    dense   smooth      PW
     Min         578     289     74               118518    41891    5486
     Max         579     290     75               118533    41932    5497
     Sum       18505    9265   2385              3792731  1341081  175711


     Title: 
     top.O1.Au5859.d.2.7.phi.45.psi.0                                           


     bravais-lattice index     =            8
     lattice parameter (alat)  =      24.1233  a.u.
     unit-cell volume          =   28076.2361 (a.u.)^3
     number of atoms/cell      =           75
     number of atomic types    =            3
     number of electrons       =       800.00
     number of Kohn-Sham states=          480
     kinetic-energy cutoff     =      50.0000  Ry
     charge density cutoff     =     400.0000  Ry
     convergence threshold     =      1.0E-08
     mixing beta               =       0.7000
     number of iterations used =            8  plain     mixing
     Exchange-correlation      =  SLA  PW   PBE  PBE ( 1  4  3  4 0 0)

     celldm(1)=  24.123277  celldm(2)=   1.000000  celldm(3)=   2.000000
     celldm(4)=   0.000000  celldm(5)=   0.000000  celldm(6)=   0.000000

     crystal axes: (cart. coord. in units of alat)
               a(1) = (   1.000000   0.000000   0.000000 )  
               a(2) = (   0.000000   1.000000   0.000000 )  
               a(3) = (   0.000000   0.000000   2.000000 )  

     reciprocal axes: (cart. coord. in units 2 pi/alat)
               b(1) = (  1.000000  0.000000  0.000000 )  
               b(2) = (  0.000000  1.000000  0.000000 )  
               b(3) = (  0.000000  0.000000  0.500000 )  


     PseudoPot. # 1 for Au read from file:
     /home/scc/andrejb/qe/pseudo/Au.pbe-nd-van.UPF
     MD5 check sum: 458681b50f36d87ef23c61b04bba420a
     Pseudo is Ultrasoft + core correction, Zval = 11.0
     Generated by new atomic code, or converted to UPF format
     Using radial grid of  985 points,  3 beta functions with: 
                l(1) =   1
                l(2) =   2
                l(3) =   2
     Q(r) pseudized with  8 coefficients,  rinner =    1.100   1.100   1.100
                                                       1.100   1.100

     PseudoPot. # 2 for H  read from file:
     /home/scc/andrejb/qe/pseudo/H.pbe-van_ak.UPF
     MD5 check sum: 403db7282739603aa925980fa9b8608d
     Pseudo is Ultrasoft, Zval =  1.0
     Generated by new atomic code, or converted to UPF format
     Using radial grid of  615 points,  1 beta functions with: 
                l(1) =   0
     Q(r) pseudized with  8 coefficients,  rinner =    0.800

     PseudoPot. # 3 for O  read from file:
     /home/scc/andrejb/qe/pseudo/O.pbe-van_ak.UPF
     MD5 check sum: 4b8c549914a63cae506c6ff22b5af4fe
     Pseudo is Ultrasoft, Zval =  6.0
     Generated by new atomic code, or converted to UPF format
     Using radial grid of  737 points,  4 beta functions with: 
                l(1) =   0
                l(2) =   0
                l(3) =   1
                l(4) =   1
     Q(r) pseudized with  8 coefficients,  rinner =    0.800   0.800   0.800


     atomic species   valence    mass     pseudopotential
        Au            11.00   196.96657     Au( 1.00)
        H              1.00     1.01000     H ( 1.00)
        O              6.00    16.00000     O ( 1.00)

     No symmetry found



   Cartesian axes

     site n.     atom                  positions (alat units)
         1           O   tau(   1) = (   0.1666051   0.1666105   0.7108218  )
         2           H   tau(   2) = (   0.1610146   0.1056232   0.7563157  )
         3           H   tau(   3) = (   0.1720135   0.2257614   0.7586794  )
         4           Au  tau(   4) = (   0.0000000   0.0000000   0.0000000  )
         5           Au  tau(   5) = (   0.3332217   0.0000000   0.0000000  )
         6           Au  tau(   6) = (   0.6664434   0.0000000   0.0000000  )
         7           Au  tau(   7) = (   0.1666109   0.1666109   0.0000000  )
         8           Au  tau(   8) = (   0.4998326   0.1666109   0.0000000  )
         9           Au  tau(   9) = (   0.8330542   0.1666109   0.0000000  )
        10           Au  tau(  10) = (   0.0000000   0.3332217   0.0000000  )
        11           Au  tau(  11) = (   0.3332217   0.3332217   0.0000000  )
        12           Au  tau(  12) = (   0.6664434   0.3332217   0.0000000  )
        13           Au  tau(  13) = (   0.1666109   0.4998326   0.0000000  )
        14           Au  tau(  14) = (   0.4998326   0.4998326   0.0000000  )
        15           Au  tau(  15) = (   0.8330542   0.4998326   0.0000000  )
        16           Au  tau(  16) = (   0.0000000   0.6664434   0.0000000  )
        17           Au  tau(  17) = (   0.3332217   0.6664434   0.0000000  )
        18           Au  tau(  18) = (   0.6664434   0.6664434   0.0000000  )
        19           Au  tau(  19) = (   0.1666109   0.8330542   0.0000000  )
        20           Au  tau(  20) = (   0.4998326   0.8330542   0.0000000  )
        21           Au  tau(  21) = (   0.8330542   0.8330542   0.0000000  )
        22           Au  tau(  22) = (   0.1666109   0.0000000   0.1666109  )
        23           Au  tau(  23) = (   0.4998326   0.0000000   0.1666109  )
        24           Au  tau(  24) = (   0.8330542   0.0000000   0.1666109  )
        25           Au  tau(  25) = (   0.0000000   0.1666109   0.1666109  )
        26           Au  tau(  26) = (   0.3332217   0.1666109   0.1666109  )
        27           Au  tau(  27) = (   0.6664434   0.1666109   0.1666109  )
        28           Au  tau(  28) = (   0.1666109   0.3332217   0.1666109  )
        29           Au  tau(  29) = (   0.4998326   0.3332217   0.1666109  )
        30           Au  tau(  30) = (   0.8330542   0.3332217   0.1666109  )
        31           Au  tau(  31) = (   0.0000000   0.4998326   0.1666109  )
        32           Au  tau(  32) = (   0.3332217   0.4998326   0.1666109  )
        33           Au  tau(  33) = (   0.6664434   0.4998326   0.1666109  )
        34           Au  tau(  34) = (   0.1666109   0.6664434   0.1666109  )
        35           Au  tau(  35) = (   0.4998326   0.6664434   0.1666109  )
        36           Au  tau(  36) = (   0.8330542   0.6664434   0.1666109  )
        37           Au  tau(  37) = (   0.0000000   0.8330542   0.1666109  )
        38           Au  tau(  38) = (   0.3332217   0.8330542   0.1666109  )
        39           Au  tau(  39) = (   0.6664434   0.8330542   0.1666109  )
        40           Au  tau(  40) = (  -0.0000182  -0.0000182   0.3335478  )
        41           Au  tau(  41) = (   0.3332215  -0.0000181   0.3335473  )
        42           Au  tau(  42) = (   0.6664447  -0.0000183   0.3335481  )
        43           Au  tau(  43) = (  -0.0000181   0.3332215   0.3335473  )
        44           Au  tau(  44) = (   0.3332215   0.3332215   0.3335468  )
        45           Au  tau(  45) = (   0.6664445   0.3332215   0.3335477  )
        46           Au  tau(  46) = (  -0.0000183   0.6664447   0.3335481  )
        47           Au  tau(  47) = (   0.3332215   0.6664445   0.3335477  )
        48           Au  tau(  48) = (   0.6664446   0.6664446   0.3335486  )
        49           Au  tau(  49) = (   0.1666097   0.1666097   0.3335483  )
        50           Au  tau(  50) = (   0.4998320   0.1666098   0.3335477  )
        51           Au  tau(  51) = (   0.8330732   0.1666096   0.3335480  )
        52           Au  tau(  52) = (   0.1666098   0.4998320   0.3335477  )
        53           Au  tau(  53) = (   0.4998322   0.4998322   0.3335470  )
        54           Au  tau(  54) = (   0.8330731   0.4998322   0.3335474  )
        55           Au  tau(  55) = (   0.1666096   0.8330732   0.3335480  )
        56           Au  tau(  56) = (   0.4998322   0.8330731   0.3335474  )
        57           Au  tau(  57) = (   0.8330731   0.8330731   0.3335478  )
        58           Au  tau(  58) = (   0.1666104  -0.0000111   0.4993095  )
        59           Au  tau(  59) = (   0.4998323  -0.0000112   0.4993099  )
        60           Au  tau(  60) = (   0.8330660  -0.0000111   0.4993009  )
        61           Au  tau(  61) = (  -0.0000111   0.1666104   0.4993095  )
        62           Au  tau(  62) = (   0.3332213   0.1666106   0.4993185  )
        63           Au  tau(  63) = (   0.6664437   0.1666106   0.4993187  )
        64           Au  tau(  64) = (   0.1666106   0.3332213   0.4993185  )
        65           Au  tau(  65) = (   0.4998324   0.3332216   0.4993185  )
        66           Au  tau(  66) = (   0.8330658   0.3332215   0.4993102  )
        67           Au  tau(  67) = (  -0.0000112   0.4998323   0.4993099  )
        68           Au  tau(  68) = (   0.3332216   0.4998324   0.4993185  )
        69           Au  tau(  69) = (   0.6664437   0.4998325   0.4993187  )
        70           Au  tau(  70) = (   0.1666106   0.6664437   0.4993187  )
        71           Au  tau(  71) = (   0.4998325   0.6664437   0.4993187  )
        72           Au  tau(  72) = (   0.8330658   0.6664438   0.4993102  )
        73           Au  tau(  73) = (  -0.0000111   0.8330660   0.4993009  )
        74           Au  tau(  74) = (   0.3332215   0.8330658   0.4993102  )
        75           Au  tau(  75) = (   0.6664438   0.8330658   0.4993102  )

     number of k points=     6  Marzari-Vanderbilt smearing, width (Ry)=  0.0200
                       cart. coord. in units 2pi/alat
        k(    1) = (   0.2500000   0.2500000   0.0833333), wk =   0.3333333
        k(    2) = (   0.2500000   0.2500000  -0.2500000), wk =   0.3333333
        k(    3) = (  -0.2500000  -0.2500000   0.0833333), wk =   0.3333333
        k(    4) = (  -0.2500000   0.2500000  -0.0833333), wk =   0.3333333
        k(    5) = (   0.2500000  -0.2500000  -0.0833333), wk =   0.3333333
        k(    6) = (  -0.2500000   0.2500000   0.2500000), wk =   0.3333333

     Dense  grid:  3792731 G-vectors     FFT dimensions: ( 160, 160, 320)

     Smooth grid:  1341081 G-vectors     FFT dimensions: ( 120, 120, 225)

     Largest allocated arrays     est. size (Mb)     dimensions
        Kohn-Sham Wavefunctions        38.58 Mb     (    5267,  480)
        NL pseudopotentials            76.03 Mb     (    5267,  946)
        Each V/rho on FFT grid          3.91 Mb     (  256000)
        Each G-vector array             0.90 Mb     (  118520)
        G-vector shells                 0.08 Mb     (   10286)
     Largest temporary arrays     est. size (Mb)     dimensions
        Auxiliary wavefunctions       154.31 Mb     (    5267, 1920)
        Each subspace H/S matrix       56.25 Mb     (    1920, 1920)
        Each <psi_i|beta_j> matrix      6.93 Mb     (     946,  480)
        Arrays for rho mixing          31.25 Mb     (  256000,    8)

     Initial potential from superposition of free atoms
     Check: negative starting charge=   -1.945098

     starting charge  799.16392, renormalised to  800.00000

     negative rho (up, down):  1.947E+00 0.000E+00
     Starting wfc are  654 randomized atomic wfcs

     total cpu time spent up to now is       99.3 secs

     Self-consistent Calculation

     iteration #  1     ecut=    50.00 Ry     beta=0.70
     Davidson diagonalization with overlap
     ethr =  1.00E-02,  avg # of iterations =  3.0

     Threshold (ethr) on eigenvalues was too large:
     Diagonalizing with lowered threshold

     Davidson diagonalization with overlap
     ethr =  5.00E-04,  avg # of iterations =  2.0

     negative rho (up, down):  1.932E+00 0.000E+00

     total cpu time spent up to now is      460.2 secs

     total energy              =   -7377.39634046 Ry
     Harris-Foulkes estimate   =   -7380.96393408 Ry
     estimated scf accuracy    <       4.52927383 Ry

     iteration #  2     ecut=    50.00 Ry     beta=0.70
     Davidson diagonalization with overlap
     ethr =  5.66E-04,  avg # of iterations = 11.3

     negative rho (up, down):  1.929E+00 0.000E+00

     total cpu time spent up to now is     1097.3 secs

     total energy              =   -7368.50575527 Ry
     Harris-Foulkes estimate   =   -7388.05336122 Ry
     estimated scf accuracy    <     101.47582292 Ry

     iteration #  3     ecut=    50.00 Ry     beta=0.70
     Davidson diagonalization with overlap
     ethr =  5.66E-04,  avg # of iterations =  6.0

     negative rho (up, down):  1.946E+00 0.000E+00

     total cpu time spent up to now is     1488.8 secs

     total energy              =   -7378.94011873 Ry
     Harris-Foulkes estimate   =   -7380.65792828 Ry
     estimated scf accuracy    <       6.36552196 Ry

     iteration #  4     ecut=    50.00 Ry     beta=0.70
     Davidson diagonalization with overlap
     ethr =  5.66E-04,  avg # of iterations =  5.0

     negative rho (up, down):  1.951E+00 0.000E+00

     total cpu time spent up to now is     1695.5 secs

     total energy              =   -7379.42941753 Ry
     Harris-Foulkes estimate   =   -7380.39261132 Ry
     estimated scf accuracy    <       5.87991189 Ry

     iteration #  5     ecut=    50.00 Ry     beta=0.70
     Davidson diagonalization with overlap
     ethr =  5.66E-04,  avg # of iterations =  4.8

     negative rho (up, down):  1.960E+00 0.000E+00

     total cpu time spent up to now is     1895.1 secs

     total energy              =   -7379.81061673 Ry
     Harris-Foulkes estimate   =   -7380.20672332 Ry
     estimated scf accuracy    <       2.82903753 Ry

     iteration #  6     ecut=    50.00 Ry     beta=0.70
     Davidson diagonalization with overlap
     ethr =  3.54E-04,  avg # of iterations =  3.8

     negative rho (up, down):  1.964E+00 0.000E+00

     total cpu time spent up to now is     2076.4 secs

     total energy              =   -7379.96130131 Ry
     Harris-Foulkes estimate   =   -7380.00874449 Ry
     estimated scf accuracy    <       0.15232115 Ry

     iteration #  7     ecut=    50.00 Ry     beta=0.70
     Davidson diagonalization with overlap
     ethr =  1.90E-05,  avg # of iterations = 14.0

     negative rho (up, down):  1.966E+00 0.000E+00

     total cpu time spent up to now is     2420.3 secs

     total energy              =   -7379.96768170 Ry
     Harris-Foulkes estimate   =   -7380.00135474 Ry
     estimated scf accuracy    <       0.15002796 Ry

     iteration #  8     ecut=    50.00 Ry     beta=0.70
     Davidson diagonalization with overlap
     ethr =  1.88E-05,  avg # of iterations =  3.0

     negative rho (up, down):  1.968E+00 0.000E+00

     total cpu time spent up to now is     2598.6 secs

     total energy              =   -7379.97028200 Ry
     Harris-Foulkes estimate   =   -7379.99319302 Ry
     estimated scf accuracy    <       0.10109666 Ry

     iteration #  9     ecut=    50.00 Ry     beta=0.70
     Davidson diagonalization with overlap
     ethr =  1.26E-05,  avg # of iterations =  4.0

     negative rho (up, down):  1.969E+00 0.000E+00

     total cpu time spent up to now is     2785.8 secs

     total energy              =   -7379.97636302 Ry
     Harris-Foulkes estimate   =   -7379.98494857 Ry
     estimated scf accuracy    <       0.02914084 Ry

     iteration # 10     ecut=    50.00 Ry     beta=0.70
     Davidson diagonalization with overlap
     ethr =  3.64E-06,  avg # of iterations = 11.2

     negative rho (up, down):  1.970E+00 0.000E+00

     total cpu time spent up to now is     3064.7 secs

     total energy              =   -7379.97934667 Ry
     Harris-Foulkes estimate   =   -7379.98183836 Ry
     estimated scf accuracy    <       0.00677524 Ry

     iteration # 11     ecut=    50.00 Ry     beta=0.70
     Davidson diagonalization with overlap
     ethr =  8.47E-07,  avg # of iterations =  3.2

     negative rho (up, down):  1.970E+00 0.000E+00

     total cpu time spent up to now is     3251.9 secs

     total energy              =   -7379.98029192 Ry
     Harris-Foulkes estimate   =   -7379.98106288 Ry
     estimated scf accuracy    <       0.00205248 Ry

     iteration # 12     ecut=    50.00 Ry     beta=0.70
     Davidson diagonalization with overlap
     ethr =  2.57E-07,  avg # of iterations =  2.0

     negative rho (up, down):  1.970E+00 0.000E+00

     total cpu time spent up to now is     3417.9 secs

     total energy              =   -7379.98053389 Ry
     Harris-Foulkes estimate   =   -7379.98077336 Ry
     estimated scf accuracy    <       0.00066475 Ry

     iteration # 13     ecut=    50.00 Ry     beta=0.70
     Davidson diagonalization with overlap
     ethr =  8.31E-08,  avg # of iterations =  3.0

     negative rho (up, down):  1.971E+00 0.000E+00

     total cpu time spent up to now is     3629.2 secs

     total energy              =   -7379.98043901 Ry
     Harris-Foulkes estimate   =   -7379.98093393 Ry
     estimated scf accuracy    <       0.00254513 Ry

     iteration # 14     ecut=    50.00 Ry     beta=0.70
     Davidson diagonalization with overlap
     ethr =  8.31E-08,  avg # of iterations =  3.0

     negative rho (up, down):  1.971E+00 0.000E+00

     total cpu time spent up to now is     3816.7 secs

     total energy              =   -7379.98066175 Ry
     Harris-Foulkes estimate   =   -7379.98070177 Ry
     estimated scf accuracy    <       0.00014755 Ry

     iteration # 15     ecut=    50.00 Ry     beta=0.70
     Davidson diagonalization with overlap
     ethr =  1.84E-08,  avg # of iterations =  2.0

     negative rho (up, down):  1.970E+00 0.000E+00

     total cpu time spent up to now is     3999.5 secs

     total energy              =   -7379.98067742 Ry
     Harris-Foulkes estimate   =   -7379.98069572 Ry
     estimated scf accuracy    <       0.00009724 Ry

     iteration # 16     ecut=    50.00 Ry     beta=0.70
     Davidson diagonalization with overlap
     ethr =  1.22E-08,  avg # of iterations =  2.0

     negative rho (up, down):  1.970E+00 0.000E+00

     total cpu time spent up to now is     4182.2 secs

     total energy              =   -7379.98067594 Ry
     Harris-Foulkes estimate   =   -7379.98069950 Ry
     estimated scf accuracy    <       0.00017702 Ry

     iteration # 17     ecut=    50.00 Ry     beta=0.70
     Davidson diagonalization with overlap
     ethr =  1.22E-08,  avg # of iterations =  1.0

     negative rho (up, down):  1.970E+00 0.000E+00

     total cpu time spent up to now is     4351.7 secs

     total energy              =   -7379.98068740 Ry
     Harris-Foulkes estimate   =   -7379.98068910 Ry
     estimated scf accuracy    <       0.00000663 Ry

     iteration # 18     ecut=    50.00 Ry     beta=0.70
     Davidson diagonalization with overlap
     ethr =  8.29E-10,  avg # of iterations =  3.0

     negative rho (up, down):  1.970E+00 0.000E+00

     total cpu time spent up to now is     4550.9 secs

     total energy              =   -7379.98068760 Ry
     Harris-Foulkes estimate   =   -7379.98068921 Ry
     estimated scf accuracy    <       0.00000726 Ry

     iteration # 19     ecut=    50.00 Ry     beta=0.70
     Davidson diagonalization with overlap
     ethr =  8.29E-10,  avg # of iterations =  2.0

     negative rho (up, down):  1.971E+00 0.000E+00

     total cpu time spent up to now is     4709.2 secs

     total energy              =   -7379.98068834 Ry
     Harris-Foulkes estimate   =   -7379.98068864 Ry
     estimated scf accuracy    <       0.00000116 Ry

     iteration # 20     ecut=    50.00 Ry     beta=0.70
     Davidson diagonalization with overlap
     ethr =  1.45E-10,  avg # of iterations =  2.0

     negative rho (up, down):  1.971E+00 0.000E+00

     total cpu time spent up to now is     4875.3 secs

     total energy              =   -7379.98068847 Ry
     Harris-Foulkes estimate   =   -7379.98068856 Ry
     estimated scf accuracy    <       0.00000022 Ry

     iteration # 21     ecut=    50.00 Ry     beta=0.70
     Davidson diagonalization with overlap
     ethr =  2.73E-11,  avg # of iterations =  3.0

     negative rho (up, down):  1.971E+00 0.000E+00

     total cpu time spent up to now is     5071.1 secs

     total energy              =   -7379.98068848 Ry
     Harris-Foulkes estimate   =   -7379.98068854 Ry
     estimated scf accuracy    <       0.00000017 Ry

     iteration # 22     ecut=    50.00 Ry     beta=0.70
     Davidson diagonalization with overlap
     ethr =  2.10E-11,  avg # of iterations =  2.0

     negative rho (up, down):  1.971E+00 0.000E+00

     total cpu time spent up to now is     5239.1 secs

     total energy              =   -7379.98068850 Ry
     Harris-Foulkes estimate   =   -7379.98068853 Ry
     estimated scf accuracy    <       0.00000013 Ry

     iteration # 23     ecut=    50.00 Ry     beta=0.70
     Davidson diagonalization with overlap
     ethr =  1.63E-11,  avg # of iterations =  2.0

     negative rho (up, down):  1.971E+00 0.000E+00

     total cpu time spent up to now is     5397.7 secs

     total energy              =   -7379.98068851 Ry
     Harris-Foulkes estimate   =   -7379.98068852 Ry
     estimated scf accuracy    <       0.00000005 Ry

     iteration # 24     ecut=    50.00 Ry     beta=0.70
     Davidson diagonalization with overlap
     ethr =  6.70E-12,  avg # of iterations =  2.0

     negative rho (up, down):  1.971E+00 0.000E+00

     total cpu time spent up to now is     5599.7 secs

     total energy              =   -7379.98068851 Ry
     Harris-Foulkes estimate   =   -7379.98068852 Ry
     estimated scf accuracy    <       0.00000003 Ry

     iteration # 25     ecut=    50.00 Ry     beta=0.70
     Davidson diagonalization with overlap
     ethr =  3.72E-12,  avg # of iterations =  2.0

     negative rho (up, down):  1.971E+00 0.000E+00

     total cpu time spent up to now is     5755.7 secs

     total energy              =   -7379.98068851 Ry
     Harris-Foulkes estimate   =   -7379.98068852 Ry
     estimated scf accuracy    <       0.00000003 Ry

     iteration # 26     ecut=    50.00 Ry     beta=0.70
     Davidson diagonalization with overlap
     ethr =  3.22E-12,  avg # of iterations =  1.0

     negative rho (up, down):  1.971E+00 0.000E+00

     total cpu time spent up to now is     5918.8 secs

     End of self-consistent calculation

          k = 0.2500 0.2500 0.0833 (167653 PWs)   bands (ev):

   -19.6902  -7.4915  -6.7305  -6.2004  -6.1999  -5.7619  -5.3607  -5.2599
    -5.2595  -5.0379  -5.0375  -4.9447  -4.9418  -4.8087  -4.7996  -4.6901
    -4.6019  -4.5976  -4.5773  -4.5763  -4.3979  -4.3944  -4.3936  -4.3673
    -4.3640  -4.3625  -4.3593  -4.3098  -4.3063  -4.3030  -4.3024  -4.2390
    -4.2115  -4.2105  -4.1670  -4.1505  -4.1494  -4.1188  -4.1138  -4.0991
    -4.0947  -4.0762  -4.0759  -4.0485  -4.0118  -4.0063  -4.0060  -4.0017
    -4.0001  -3.9724  -3.9589  -3.9402  -3.9150  -3.9105  -3.9083  -3.9062
    -3.9041  -3.9010  -3.8973  -3.8670  -3.8138  -3.8061  -3.8034  -3.7687
    -3.7477  -3.7394  -3.7366  -3.7251  -3.7139  -3.7130  -3.7018  -3.6518
    -3.6516  -3.6461  -3.6426  -3.5611  -3.5550  -3.5389  -3.5342  -3.5034
    -3.4951  -3.4882  -3.4626  -3.4622  -3.4182  -3.4170  -3.4159  -3.4153
    -3.3911  -3.3884  -3.3100  -3.3092  -3.3066  -3.2944  -3.2787  -3.2764
    -3.2632  -3.2628  -3.2563  -3.2560  -3.2131  -3.2123  -3.1909  -3.1873
    -3.1544  -3.1497  -3.1274  -3.1062  -3.1048  -3.0601  -3.0595  -3.0268
    -2.9998  -2.9989  -2.9985  -2.9960  -2.9942  -2.9933  -2.9651  -2.9577
    -2.9191  -2.9189  -2.8979  -2.8739  -2.8713  -2.8710  -2.8652  -2.8639
    -2.8602  -2.8600  -2.8251  -2.8241  -2.8239  -2.8186  -2.8163  -2.8134
    -2.7577  -2.7528  -2.7489  -2.7482  -2.7264  -2.7249  -2.7208  -2.6317
    -2.6217  -2.6213  -2.6124  -2.6113  -2.6058  -2.6053  -2.6035  -2.5958
    -2.5956  -2.5853  -2.5776  -2.5755  -2.5720  -2.5697  -2.5602  -2.5538
    -2.5525  -2.5306  -2.5205  -2.5188  -2.5040  -2.5038  -2.4870  -2.4851
    -2.4781  -2.4775  -2.4571  -2.4451  -2.4439  -2.4402  -2.4367  -2.4053
    -2.4031  -2.4010  -2.3449  -2.3411  -2.3270  -2.3269  -2.3152  -2.3131
    -2.2886  -2.2883  -2.2839  -2.2729  -2.2702  -2.2611  -2.2584  -2.2438
    -2.2423  -2.2168  -2.2158  -2.2062  -2.2056  -2.1964  -2.1956  -2.1793
    -2.1653  -2.1431  -2.0797  -2.0750  -2.0552  -2.0547  -2.0444  -2.0412
    -1.9949  -1.9905  -1.9760  -1.9581  -1.9466  -1.9447  -1.9276  -1.9099
    -1.9083  -1.8959  -1.8903  -1.8655  -1.8582  -1.8549  -1.8496  -1.8472
    -1.8412  -1.8385  -1.8250  -1.8137  -1.8122  -1.8032  -1.8029  -1.8024
    -1.8017  -1.8005  -1.7875  -1.7798  -1.7663  -1.7654  -1.7574  -1.7464
    -1.7452  -1.7423  -1.7404  -1.7401  -1.7334  -1.7171  -1.6967  -1.6899
    -1.6540  -1.6350  -1.6335  -1.5892  -1.5888  -1.5885  -1.5789  -1.5752
    -1.5654  -1.5612  -1.5566  -1.5476  -1.5468  -1.5405  -1.5260  -1.5209
    -1.4886  -1.4880  -1.4707  -1.4495  -1.4468  -1.4094  -1.4077  -1.3592
    -1.3572  -1.3373  -1.3143  -1.3114  -1.3112  -1.3054  -1.3036  -1.2859
    -1.2853  -1.2851  -1.2844  -1.2834  -1.2824  -1.2806  -1.2759  -1.2694
    -1.2517  -1.2501  -1.2188  -1.2178  -1.2154  -1.1959  -1.1951  -1.1914
    -1.1888  -1.1873  -1.1737  -1.1505  -1.1455  -1.1259  -1.1233  -1.1153
    -1.1032  -1.0921  -1.0915  -1.0631  -1.0618  -1.0556  -1.0527  -1.0159
    -1.0156  -1.0056  -1.0044  -1.0040  -1.0011  -0.9777  -0.9774  -0.9635
    -0.9564  -0.9558  -0.9452  -0.9435  -0.9418  -0.9391  -0.9313  -0.9206
    -0.9185  -0.9131  -0.9128  -0.9067  -0.9019  -0.8980  -0.8862  -0.8440
    -0.8423  -0.8419  -0.8392  -0.8381  -0.8359  -0.8072  -0.8023  -0.7935
    -0.7762  -0.7723  -0.7670  -0.7665  -0.7587  -0.7503  -0.7497  -0.7146
    -0.7131  -0.7024  -0.7021  -0.6823  -0.6818  -0.6666  -0.6427  -0.6345
    -0.6173  -0.6164  -0.5792  -0.5786  -0.5757  -0.5755  -0.5738  -0.5685
    -0.5681  -0.5671  -0.5632  -0.5610  -0.5283  -0.5281  -0.5279  -0.5273
    -0.5238  -0.5158  -0.5107  -0.5102  -0.4826  -0.2214  -0.2138  -0.1705
    -0.1608  -0.1367  -0.0764   0.0738   0.0752   0.1086   0.3893   0.3921
     0.7272   0.7354   0.7741   0.7755   0.8227   0.8276   0.9842   0.9873
     1.1121   1.1140   1.2280   1.7231   1.7671   1.7687   1.8057   1.8067
     1.9354   1.9489   1.9983   2.0021   2.1809   2.1828   2.4634   2.4891
     2.5001   2.5164   2.9418   2.9524   2.9732   2.9741   2.9894   2.9919
     3.0554   3.0564   3.1969   3.3310   3.3339   3.5195   3.5263   3.6301
     3.6993   3.7026   3.9990   4.0011   4.0548   4.0602   4.0623   4.1850
     4.2051   4.2091   4.2128   4.5021   4.5035   4.5384   4.5394   4.6550
     4.6562   4.7115   4.7247   4.9323   5.1735   5.6003   5.6045   5.6503
     5.6822   5.8045   5.8108   5.8206   5.8783   5.8855   5.8998   5.9019
     5.9455   6.0112   6.0303   6.0966   6.2925   6.2952   6.2998   6.3085
     6.3126   6.3142   6.3312   6.3405   6.4121   6.4487   6.4996   6.5696

          k = 0.2500 0.2500-0.2500 (167588 PWs)   bands (ev):

   -19.6902  -7.4915  -6.7305  -6.2004  -6.1999  -5.7619  -5.3607  -5.2599
    -5.2595  -5.0379  -5.0375  -4.9447  -4.9418  -4.8087  -4.7996  -4.6901
    -4.6019  -4.5976  -4.5773  -4.5763  -4.3979  -4.3944  -4.3936  -4.3674
    -4.3640  -4.3625  -4.3593  -4.3098  -4.3063  -4.3030  -4.3024  -4.2390
    -4.2115  -4.2105  -4.1670  -4.1505  -4.1494  -4.1188  -4.1138  -4.0991
    -4.0947  -4.0762  -4.0760  -4.0485  -4.0118  -4.0063  -4.0060  -4.0017
    -4.0001  -3.9724  -3.9589  -3.9402  -3.9150  -3.9105  -3.9083  -3.9062
    -3.9041  -3.9010  -3.8973  -3.8670  -3.8138  -3.8061  -3.8034  -3.7687
    -3.7476  -3.7394  -3.7366  -3.7250  -3.7139  -3.7130  -3.7018  -3.6518
    -3.6516  -3.6461  -3.6426  -3.5611  -3.5550  -3.5389  -3.5342  -3.5034
    -3.4951  -3.4882  -3.4626  -3.4622  -3.4182  -3.4170  -3.4159  -3.4153
    -3.3911  -3.3884  -3.3100  -3.3092  -3.3066  -3.2944  -3.2787  -3.2764
    -3.2632  -3.2628  -3.2563  -3.2560  -3.2131  -3.2123  -3.1909  -3.1873
    -3.1544  -3.1497  -3.1274  -3.1062  -3.1048  -3.0601  -3.0595  -3.0268
    -2.9998  -2.9989  -2.9985  -2.9960  -2.9941  -2.9933  -2.9651  -2.9577
    -2.9191  -2.9189  -2.8979  -2.8739  -2.8713  -2.8710  -2.8652  -2.8639
    -2.8602  -2.8600  -2.8251  -2.8241  -2.8239  -2.8186  -2.8163  -2.8134
    -2.7577  -2.7528  -2.7489  -2.7482  -2.7264  -2.7249  -2.7208  -2.6317
    -2.6217  -2.6213  -2.6124  -2.6113  -2.6058  -2.6053  -2.6035  -2.5958
    -2.5956  -2.5853  -2.5776  -2.5755  -2.5720  -2.5698  -2.5602  -2.5538
    -2.5525  -2.5306  -2.5205  -2.5188  -2.5040  -2.5038  -2.4870  -2.4851
    -2.4781  -2.4775  -2.4571  -2.4451  -2.4439  -2.4402  -2.4367  -2.4053
    -2.4031  -2.4010  -2.3449  -2.3411  -2.3270  -2.3269  -2.3152  -2.3131
    -2.2886  -2.2883  -2.2839  -2.2729  -2.2702  -2.2611  -2.2584  -2.2438
    -2.2423  -2.2168  -2.2158  -2.2062  -2.2056  -2.1964  -2.1956  -2.1793
    -2.1653  -2.1431  -2.0797  -2.0750  -2.0552  -2.0547  -2.0444  -2.0412
    -1.9949  -1.9905  -1.9760  -1.9581  -1.9466  -1.9447  -1.9276  -1.9099
    -1.9083  -1.8959  -1.8903  -1.8655  -1.8582  -1.8549  -1.8496  -1.8472
    -1.8412  -1.8385  -1.8250  -1.8137  -1.8122  -1.8032  -1.8029  -1.8024
    -1.8017  -1.8005  -1.7875  -1.7798  -1.7663  -1.7654  -1.7574  -1.7464
    -1.7452  -1.7423  -1.7404  -1.7401  -1.7334  -1.7171  -1.6967  -1.6898
    -1.6541  -1.6350  -1.6334  -1.5892  -1.5888  -1.5885  -1.5789  -1.5752
    -1.5654  -1.5612  -1.5566  -1.5476  -1.5468  -1.5405  -1.5260  -1.5209
    -1.4886  -1.4880  -1.4707  -1.4495  -1.4468  -1.4094  -1.4077  -1.3592
    -1.3572  -1.3373  -1.3143  -1.3114  -1.3112  -1.3054  -1.3036  -1.2859
    -1.2853  -1.2851  -1.2844  -1.2834  -1.2824  -1.2806  -1.2759  -1.2694
    -1.2517  -1.2501  -1.2188  -1.2178  -1.2154  -1.1959  -1.1951  -1.1914
    -1.1888  -1.1873  -1.1737  -1.1505  -1.1455  -1.1259  -1.1233  -1.1153
    -1.1032  -1.0921  -1.0915  -1.0631  -1.0618  -1.0556  -1.0527  -1.0159
    -1.0155  -1.0056  -1.0044  -1.0040  -1.0011  -0.9777  -0.9774  -0.9635
    -0.9564  -0.9558  -0.9452  -0.9435  -0.9418  -0.9391  -0.9313  -0.9206
    -0.9186  -0.9131  -0.9127  -0.9067  -0.9019  -0.8980  -0.8862  -0.8440
    -0.8423  -0.8419  -0.8392  -0.8381  -0.8359  -0.8072  -0.8023  -0.7935
    -0.7762  -0.7723  -0.7670  -0.7665  -0.7587  -0.7503  -0.7497  -0.7146
    -0.7131  -0.7024  -0.7021  -0.6823  -0.6818  -0.6666  -0.6427  -0.6345
    -0.6173  -0.6164  -0.5792  -0.5786  -0.5757  -0.5755  -0.5738  -0.5685
    -0.5681  -0.5671  -0.5632  -0.5610  -0.5283  -0.5281  -0.5279  -0.5273
    -0.5238  -0.5158  -0.5107  -0.5102  -0.4826  -0.2214  -0.2138  -0.1705
    -0.1608  -0.1367  -0.0764   0.0738   0.0752   0.1086   0.3893   0.3921
     0.7272   0.7354   0.7741   0.7755   0.8227   0.8276   0.9842   0.9873
     1.1121   1.1140   1.2280   1.7231   1.7671   1.7687   1.8057   1.8067
     1.9354   1.9489   1.9983   2.0021   2.1809   2.1828   2.4634   2.4891
     2.5001   2.5164   2.9418   2.9524   2.9732   2.9741   2.9894   2.9919
     3.0554   3.0564   3.1969   3.3310   3.3339   3.5195   3.5264   3.6301
     3.6993   3.7026   3.9990   4.0011   4.0547   4.0602   4.0623   4.1851
     4.2051   4.2091   4.2129   4.5021   4.5035   4.5384   4.5394   4.6550
     4.6562   4.7115   4.7247   4.9321   5.1706   5.6001   5.6045   5.6506
     5.6767   5.7930   5.8090   5.8141   5.8783   5.8861   5.8999   5.9019
     5.9800   6.0147   6.0424   6.1079   6.2734   6.2951   6.2982   6.3088
     6.3126   6.3145   6.3286   6.3993   6.4223   6.4974   6.5216   6.5667

          k =-0.2500-0.2500 0.0833 (167653 PWs)   bands (ev):

   -19.6902  -7.4915  -6.7305  -6.2004  -6.1999  -5.7619  -5.3607  -5.2599
    -5.2595  -5.0379  -5.0375  -4.9447  -4.9418  -4.8087  -4.7996  -4.6901
    -4.6019  -4.5976  -4.5773  -4.5763  -4.3979  -4.3944  -4.3936  -4.3673
    -4.3640  -4.3625  -4.3593  -4.3098  -4.3063  -4.3030  -4.3024  -4.2390
    -4.2115  -4.2105  -4.1670  -4.1505  -4.1494  -4.1188  -4.1138  -4.0991
    -4.0947  -4.0762  -4.0759  -4.0485  -4.0118  -4.0063  -4.0060  -4.0017
    -4.0001  -3.9724  -3.9589  -3.9402  -3.9150  -3.9105  -3.9083  -3.9062
    -3.9041  -3.9010  -3.8973  -3.8670  -3.8138  -3.8061  -3.8034  -3.7687
    -3.7477  -3.7394  -3.7366  -3.7251  -3.7139  -3.7130  -3.7018  -3.6518
    -3.6516  -3.6461  -3.6426  -3.5611  -3.5550  -3.5389  -3.5342  -3.5034
    -3.4951  -3.4882  -3.4626  -3.4622  -3.4182  -3.4170  -3.4159  -3.4153
    -3.3911  -3.3884  -3.3100  -3.3092  -3.3066  -3.2944  -3.2787  -3.2764
    -3.2632  -3.2628  -3.2563  -3.2560  -3.2131  -3.2123  -3.1909  -3.1873
    -3.1544  -3.1497  -3.1274  -3.1062  -3.1048  -3.0601  -3.0595  -3.0268
    -2.9998  -2.9989  -2.9985  -2.9960  -2.9942  -2.9933  -2.9651  -2.9577
    -2.9191  -2.9189  -2.8979  -2.8739  -2.8713  -2.8710  -2.8652  -2.8639
    -2.8602  -2.8600  -2.8251  -2.8241  -2.8239  -2.8186  -2.8163  -2.8134
    -2.7577  -2.7528  -2.7489  -2.7482  -2.7264  -2.7249  -2.7208  -2.6317
    -2.6217  -2.6213  -2.6124  -2.6113  -2.6058  -2.6053  -2.6035  -2.5958
    -2.5956  -2.5853  -2.5776  -2.5755  -2.5720  -2.5697  -2.5602  -2.5538
    -2.5525  -2.5306  -2.5205  -2.5188  -2.5040  -2.5038  -2.4870  -2.4851
    -2.4781  -2.4775  -2.4571  -2.4451  -2.4439  -2.4402  -2.4367  -2.4053
    -2.4031  -2.4010  -2.3449  -2.3411  -2.3270  -2.3269  -2.3152  -2.3131
    -2.2886  -2.2883  -2.2839  -2.2729  -2.2702  -2.2611  -2.2584  -2.2438
    -2.2423  -2.2168  -2.2158  -2.2062  -2.2056  -2.1964  -2.1956  -2.1793
    -2.1653  -2.1431  -2.0797  -2.0750  -2.0552  -2.0547  -2.0444  -2.0412
    -1.9949  -1.9905  -1.9760  -1.9581  -1.9466  -1.9447  -1.9276  -1.9099
    -1.9083  -1.8959  -1.8903  -1.8655  -1.8582  -1.8549  -1.8496  -1.8472
    -1.8412  -1.8385  -1.8250  -1.8137  -1.8122  -1.8032  -1.8029  -1.8024
    -1.8017  -1.8005  -1.7875  -1.7798  -1.7663  -1.7654  -1.7574  -1.7464
    -1.7452  -1.7423  -1.7404  -1.7401  -1.7334  -1.7171  -1.6967  -1.6899
    -1.6540  -1.6350  -1.6335  -1.5892  -1.5888  -1.5885  -1.5789  -1.5752
    -1.5654  -1.5612  -1.5566  -1.5476  -1.5468  -1.5405  -1.5260  -1.5209
    -1.4886  -1.4880  -1.4707  -1.4495  -1.4468  -1.4094  -1.4077  -1.3592
    -1.3572  -1.3373  -1.3143  -1.3114  -1.3112  -1.3054  -1.3036  -1.2859
    -1.2853  -1.2851  -1.2844  -1.2834  -1.2824  -1.2806  -1.2759  -1.2694
    -1.2517  -1.2501  -1.2188  -1.2178  -1.2154  -1.1959  -1.1951  -1.1914
    -1.1888  -1.1873  -1.1737  -1.1505  -1.1455  -1.1259  -1.1233  -1.1153
    -1.1032  -1.0921  -1.0915  -1.0631  -1.0618  -1.0556  -1.0527  -1.0159
    -1.0156  -1.0056  -1.0044  -1.0040  -1.0011  -0.9777  -0.9774  -0.9635
    -0.9564  -0.9558  -0.9452  -0.9435  -0.9418  -0.9391  -0.9313  -0.9206
    -0.9185  -0.9131  -0.9127  -0.9067  -0.9019  -0.8980  -0.8862  -0.8440
    -0.8423  -0.8419  -0.8392  -0.8381  -0.8359  -0.8072  -0.8023  -0.7935
    -0.7762  -0.7723  -0.7670  -0.7665  -0.7587  -0.7503  -0.7497  -0.7146
    -0.7131  -0.7024  -0.7021  -0.6823  -0.6818  -0.6666  -0.6427  -0.6345
    -0.6173  -0.6164  -0.5792  -0.5786  -0.5757  -0.5755  -0.5738  -0.5685
    -0.5681  -0.5671  -0.5632  -0.5610  -0.5283  -0.5281  -0.5279  -0.5273
    -0.5238  -0.5158  -0.5107  -0.5102  -0.4826  -0.2214  -0.2138  -0.1705
    -0.1608  -0.1367  -0.0764   0.0738   0.0752   0.1086   0.3893   0.3921
     0.7272   0.7354   0.7741   0.7755   0.8227   0.8276   0.9842   0.9873
     1.1121   1.1140   1.2280   1.7231   1.7671   1.7687   1.8057   1.8067
     1.9354   1.9489   1.9983   2.0021   2.1809   2.1828   2.4634   2.4891
     2.5001   2.5164   2.9418   2.9524   2.9732   2.9741   2.9894   2.9919
     3.0554   3.0564   3.1969   3.3310   3.3339   3.5195   3.5263   3.6301
     3.6993   3.7026   3.9990   4.0011   4.0548   4.0602   4.0623   4.1850
     4.2051   4.2091   4.2128   4.5021   4.5035   4.5384   4.5394   4.6550
     4.6562   4.7115   4.7247   4.9323   5.1735   5.6003   5.6045   5.6503
     5.6822   5.8044   5.8108   5.8202   5.8783   5.8855   5.8998   5.9019
     5.9462   6.0112   6.0304   6.0964   6.2926   6.2951   6.3001   6.3085
     6.3126   6.3142   6.3310   6.3404   6.4109   6.4492   6.4992   6.5703

          k =-0.2500 0.2500-0.0833 (167653 PWs)   bands (ev):

   -19.6902  -7.4915  -6.7305  -6.2004  -6.1999  -5.7619  -5.3607  -5.2600
    -5.2594  -5.0380  -5.0374  -4.9446  -4.9419  -4.8087  -4.7996  -4.6902
    -4.6019  -4.5976  -4.5773  -4.5763  -4.3979  -4.3944  -4.3936  -4.3674
    -4.3634  -4.3630  -4.3592  -4.3098  -4.3063  -4.3031  -4.3024  -4.2390
    -4.2115  -4.2104  -4.1670  -4.1505  -4.1494  -4.1188  -4.1139  -4.0991
    -4.0947  -4.0762  -4.0759  -4.0484  -4.0118  -4.0062  -4.0060  -4.0017
    -4.0001  -3.9725  -3.9591  -3.9401  -3.9150  -3.9105  -3.9083  -3.9061
    -3.9041  -3.9010  -3.8973  -3.8671  -3.8138  -3.8061  -3.8034  -3.7688
    -3.7475  -3.7397  -3.7362  -3.7250  -3.7139  -3.7130  -3.7018  -3.6518
    -3.6516  -3.6462  -3.6426  -3.5611  -3.5550  -3.5389  -3.5342  -3.5034
    -3.4951  -3.4882  -3.4627  -3.4622  -3.4182  -3.4170  -3.4160  -3.4152
    -3.3912  -3.3883  -3.3101  -3.3092  -3.3066  -3.2944  -3.2787  -3.2764
    -3.2633  -3.2628  -3.2564  -3.2559  -3.2131  -3.2123  -3.1909  -3.1873
    -3.1544  -3.1496  -3.1274  -3.1062  -3.1048  -3.0600  -3.0595  -3.0268
    -2.9998  -2.9989  -2.9985  -2.9960  -2.9942  -2.9933  -2.9651  -2.9577
    -2.9191  -2.9190  -2.8979  -2.8739  -2.8714  -2.8709  -2.8651  -2.8640
    -2.8602  -2.8600  -2.8251  -2.8240  -2.8238  -2.8186  -2.8163  -2.8134
    -2.7577  -2.7529  -2.7489  -2.7483  -2.7264  -2.7249  -2.7208  -2.6317
    -2.6218  -2.6212  -2.6124  -2.6113  -2.6063  -2.6044  -2.6040  -2.5958
    -2.5956  -2.5853  -2.5776  -2.5755  -2.5720  -2.5697  -2.5602  -2.5538
    -2.5525  -2.5306  -2.5205  -2.5189  -2.5040  -2.5038  -2.4871  -2.4851
    -2.4781  -2.4774  -2.4571  -2.4451  -2.4438  -2.4402  -2.4366  -2.4053
    -2.4031  -2.4010  -2.3449  -2.3411  -2.3271  -2.3267  -2.3152  -2.3128
    -2.2886  -2.2882  -2.2839  -2.2729  -2.2704  -2.2610  -2.2584  -2.2439
    -2.2423  -2.2168  -2.2158  -2.2062  -2.2055  -2.1964  -2.1956  -2.1799
    -2.1654  -2.1431  -2.0793  -2.0753  -2.0552  -2.0547  -2.0443  -2.0415
    -1.9947  -1.9904  -1.9762  -1.9580  -1.9465  -1.9447  -1.9275  -1.9096
    -1.9083  -1.8959  -1.8907  -1.8651  -1.8580  -1.8551  -1.8491  -1.8472
    -1.8412  -1.8384  -1.8243  -1.8140  -1.8121  -1.8032  -1.8029  -1.8025
    -1.8016  -1.8009  -1.7873  -1.7776  -1.7664  -1.7652  -1.7576  -1.7462
    -1.7452  -1.7421  -1.7403  -1.7402  -1.7336  -1.7190  -1.6967  -1.6934
    -1.6540  -1.6351  -1.6339  -1.5893  -1.5888  -1.5885  -1.5791  -1.5747
    -1.5657  -1.5608  -1.5571  -1.5472  -1.5464  -1.5402  -1.5261  -1.5191
    -1.4886  -1.4879  -1.4707  -1.4496  -1.4474  -1.4094  -1.4074  -1.3593
    -1.3571  -1.3372  -1.3143  -1.3115  -1.3111  -1.3058  -1.3037  -1.2860
    -1.2852  -1.2851  -1.2846  -1.2834  -1.2822  -1.2809  -1.2764  -1.2696
    -1.2517  -1.2501  -1.2189  -1.2179  -1.2148  -1.1959  -1.1949  -1.1914
    -1.1895  -1.1872  -1.1732  -1.1507  -1.1449  -1.1259  -1.1234  -1.1149
    -1.1032  -1.0921  -1.0912  -1.0631  -1.0618  -1.0559  -1.0526  -1.0162
    -1.0159  -1.0057  -1.0043  -1.0039  -1.0008  -0.9777  -0.9774  -0.9635
    -0.9563  -0.9558  -0.9454  -0.9434  -0.9418  -0.9384  -0.9313  -0.9208
    -0.9183  -0.9131  -0.9128  -0.9063  -0.9022  -0.8974  -0.8862  -0.8439
    -0.8423  -0.8419  -0.8395  -0.8384  -0.8359  -0.8078  -0.8017  -0.7935
    -0.7765  -0.7722  -0.7670  -0.7663  -0.7587  -0.7509  -0.7499  -0.7146
    -0.7128  -0.7023  -0.7021  -0.6823  -0.6818  -0.6666  -0.6427  -0.6345
    -0.6173  -0.6163  -0.5791  -0.5786  -0.5758  -0.5755  -0.5738  -0.5685
    -0.5681  -0.5672  -0.5632  -0.5610  -0.5283  -0.5282  -0.5278  -0.5274
    -0.5244  -0.5152  -0.5106  -0.5102  -0.4826  -0.2214  -0.2137  -0.1713
    -0.1603  -0.1366  -0.0765   0.0737   0.0752   0.1090   0.3889   0.3925
     0.7267   0.7360   0.7739   0.7757   0.8225   0.8279   0.9830   0.9875
     1.1121   1.1140   1.2282   1.7235   1.7672   1.7687   1.8057   1.8068
     1.9343   1.9497   1.9977   2.0026   2.1807   2.1831   2.4637   2.4888
     2.5013   2.5163   2.9410   2.9530   2.9730   2.9746   2.9893   2.9920
     3.0553   3.0565   3.1968   3.3313   3.3328   3.5196   3.5247   3.6303
     3.6991   3.7030   3.9985   4.0012   4.0549   4.0601   4.0632   4.1880
     4.2049   4.2076   4.2119   4.5019   4.5036   4.5378   4.5407   4.6552
     4.6559   4.7107   4.7262   4.9280   5.1771   5.5999   5.6042   5.6471
     5.6856   5.8049   5.8108   5.8247   5.8775   5.8859   5.8996   5.9018
     5.9504   6.0107   6.0320   6.0801   6.2938   6.2948   6.3014   6.3077
     6.3127   6.3147   6.3311   6.3361   6.4199   6.4464   6.4992   6.5704

          k = 0.2500-0.2500-0.0833 (167653 PWs)   bands (ev):

   -19.6902  -7.4915  -6.7305  -6.2004  -6.1999  -5.7619  -5.3607  -5.2600
    -5.2594  -5.0380  -5.0374  -4.9446  -4.9419  -4.8087  -4.7996  -4.6902
    -4.6019  -4.5976  -4.5773  -4.5763  -4.3979  -4.3944  -4.3936  -4.3674
    -4.3634  -4.3630  -4.3592  -4.3098  -4.3063  -4.3031  -4.3024  -4.2390
    -4.2115  -4.2104  -4.1670  -4.1505  -4.1494  -4.1188  -4.1139  -4.0991
    -4.0947  -4.0762  -4.0759  -4.0484  -4.0118  -4.0062  -4.0060  -4.0017
    -4.0001  -3.9725  -3.9591  -3.9401  -3.9150  -3.9105  -3.9083  -3.9061
    -3.9041  -3.9010  -3.8973  -3.8671  -3.8138  -3.8061  -3.8034  -3.7688
    -3.7475  -3.7397  -3.7362  -3.7250  -3.7139  -3.7130  -3.7018  -3.6518
    -3.6516  -3.6462  -3.6426  -3.5611  -3.5550  -3.5389  -3.5342  -3.5034
    -3.4951  -3.4882  -3.4627  -3.4622  -3.4182  -3.4170  -3.4160  -3.4152
    -3.3912  -3.3883  -3.3101  -3.3092  -3.3066  -3.2944  -3.2787  -3.2764
    -3.2633  -3.2628  -3.2564  -3.2559  -3.2131  -3.2123  -3.1909  -3.1873
    -3.1544  -3.1496  -3.1274  -3.1062  -3.1048  -3.0600  -3.0595  -3.0268
    -2.9998  -2.9989  -2.9985  -2.9960  -2.9942  -2.9933  -2.9651  -2.9577
    -2.9191  -2.9190  -2.8979  -2.8739  -2.8714  -2.8709  -2.8651  -2.8640
    -2.8602  -2.8600  -2.8251  -2.8240  -2.8238  -2.8186  -2.8163  -2.8134
    -2.7577  -2.7529  -2.7489  -2.7483  -2.7264  -2.7249  -2.7208  -2.6317
    -2.6218  -2.6212  -2.6124  -2.6113  -2.6063  -2.6044  -2.6040  -2.5958
    -2.5956  -2.5853  -2.5776  -2.5755  -2.5720  -2.5697  -2.5602  -2.5538
    -2.5525  -2.5306  -2.5205  -2.5189  -2.5040  -2.5038  -2.4871  -2.4851
    -2.4781  -2.4774  -2.4571  -2.4451  -2.4438  -2.4402  -2.4366  -2.4053
    -2.4031  -2.4010  -2.3449  -2.3411  -2.3271  -2.3267  -2.3152  -2.3128
    -2.2886  -2.2882  -2.2839  -2.2729  -2.2704  -2.2610  -2.2584  -2.2439
    -2.2423  -2.2168  -2.2158  -2.2062  -2.2055  -2.1964  -2.1956  -2.1799
    -2.1654  -2.1431  -2.0793  -2.0753  -2.0552  -2.0547  -2.0443  -2.0415
    -1.9947  -1.9904  -1.9762  -1.9580  -1.9465  -1.9447  -1.9275  -1.9096
    -1.9083  -1.8959  -1.8907  -1.8651  -1.8580  -1.8551  -1.8491  -1.8472
    -1.8412  -1.8384  -1.8243  -1.8140  -1.8121  -1.8032  -1.8029  -1.8025
    -1.8016  -1.8009  -1.7873  -1.7776  -1.7664  -1.7652  -1.7576  -1.7462
    -1.7452  -1.7421  -1.7403  -1.7402  -1.7336  -1.7190  -1.6967  -1.6934
    -1.6540  -1.6351  -1.6339  -1.5893  -1.5888  -1.5885  -1.5791  -1.5747
    -1.5657  -1.5608  -1.5571  -1.5472  -1.5464  -1.5402  -1.5261  -1.5191
    -1.4886  -1.4879  -1.4707  -1.4496  -1.4474  -1.4094  -1.4074  -1.3593
    -1.3571  -1.3372  -1.3143  -1.3115  -1.3111  -1.3058  -1.3037  -1.2860
    -1.2852  -1.2851  -1.2846  -1.2834  -1.2822  -1.2809  -1.2764  -1.2696
    -1.2517  -1.2501  -1.2189  -1.2179  -1.2148  -1.1959  -1.1949  -1.1914
    -1.1895  -1.1872  -1.1732  -1.1507  -1.1449  -1.1259  -1.1234  -1.1149
    -1.1032  -1.0921  -1.0912  -1.0631  -1.0618  -1.0559  -1.0526  -1.0162
    -1.0159  -1.0057  -1.0043  -1.0039  -1.0008  -0.9777  -0.9774  -0.9635
    -0.9563  -0.9558  -0.9454  -0.9434  -0.9418  -0.9384  -0.9313  -0.9208
    -0.9183  -0.9131  -0.9128  -0.9063  -0.9022  -0.8974  -0.8862  -0.8439
    -0.8423  -0.8419  -0.8395  -0.8384  -0.8359  -0.8078  -0.8017  -0.7935
    -0.7765  -0.7722  -0.7670  -0.7663  -0.7587  -0.7509  -0.7499  -0.7146
    -0.7128  -0.7023  -0.7021  -0.6823  -0.6818  -0.6666  -0.6427  -0.6345
    -0.6173  -0.6163  -0.5791  -0.5786  -0.5758  -0.5755  -0.5738  -0.5685
    -0.5681  -0.5672  -0.5632  -0.5610  -0.5283  -0.5282  -0.5278  -0.5274
    -0.5244  -0.5152  -0.5106  -0.5102  -0.4826  -0.2214  -0.2137  -0.1713
    -0.1603  -0.1366  -0.0765   0.0737   0.0752   0.1090   0.3889   0.3925
     0.7267   0.7360   0.7739   0.7757   0.8225   0.8279   0.9830   0.9875
     1.1121   1.1140   1.2282   1.7235   1.7672   1.7687   1.8057   1.8068
     1.9343   1.9497   1.9977   2.0026   2.1807   2.1831   2.4637   2.4888
     2.5013   2.5163   2.9410   2.9530   2.9730   2.9746   2.9893   2.9920
     3.0553   3.0565   3.1968   3.3313   3.3328   3.5196   3.5247   3.6303
     3.6991   3.7030   3.9985   4.0012   4.0549   4.0601   4.0632   4.1880
     4.2049   4.2076   4.2119   4.5019   4.5036   4.5378   4.5407   4.6552
     4.6559   4.7107   4.7262   4.9279   5.1771   5.5999   5.6042   5.6470
     5.6856   5.8050   5.8108   5.8251   5.8774   5.8859   5.8995   5.9018
     5.9498   6.0107   6.0318   6.0805   6.2936   6.2949   6.3011   6.3078
     6.3127   6.3148   6.3313   6.3361   6.4210   6.4459   6.4994   6.5699

          k =-0.2500 0.2500 0.2500 (167588 PWs)   bands (ev):

   -19.6902  -7.4915  -6.7305  -6.2004  -6.1999  -5.7619  -5.3607  -5.2600
    -5.2594  -5.0380  -5.0374  -4.9446  -4.9419  -4.8087  -4.7996  -4.6902
    -4.6019  -4.5976  -4.5773  -4.5763  -4.3979  -4.3944  -4.3936  -4.3674
    -4.3634  -4.3630  -4.3592  -4.3098  -4.3063  -4.3031  -4.3024  -4.2390
    -4.2115  -4.2104  -4.1670  -4.1505  -4.1494  -4.1188  -4.1139  -4.0991
    -4.0947  -4.0762  -4.0759  -4.0484  -4.0118  -4.0062  -4.0060  -4.0017
    -4.0001  -3.9725  -3.9590  -3.9401  -3.9150  -3.9104  -3.9083  -3.9061
    -3.9041  -3.9010  -3.8973  -3.8671  -3.8137  -3.8061  -3.8034  -3.7688
    -3.7475  -3.7397  -3.7362  -3.7250  -3.7139  -3.7130  -3.7018  -3.6518
    -3.6516  -3.6462  -3.6425  -3.5611  -3.5550  -3.5389  -3.5343  -3.5034
    -3.4951  -3.4882  -3.4627  -3.4622  -3.4182  -3.4170  -3.4160  -3.4152
    -3.3911  -3.3883  -3.3101  -3.3092  -3.3067  -3.2944  -3.2787  -3.2764
    -3.2633  -3.2628  -3.2564  -3.2559  -3.2131  -3.2123  -3.1909  -3.1873
    -3.1544  -3.1496  -3.1274  -3.1062  -3.1048  -3.0600  -3.0595  -3.0268
    -2.9998  -2.9989  -2.9985  -2.9960  -2.9942  -2.9933  -2.9651  -2.9577
    -2.9191  -2.9189  -2.8979  -2.8739  -2.8714  -2.8709  -2.8651  -2.8640
    -2.8602  -2.8600  -2.8251  -2.8240  -2.8238  -2.8186  -2.8163  -2.8134
    -2.7577  -2.7528  -2.7489  -2.7483  -2.7264  -2.7249  -2.7208  -2.6317
    -2.6218  -2.6212  -2.6124  -2.6113  -2.6063  -2.6044  -2.6040  -2.5958
    -2.5956  -2.5853  -2.5776  -2.5755  -2.5720  -2.5698  -2.5602  -2.5538
    -2.5525  -2.5306  -2.5205  -2.5189  -2.5040  -2.5038  -2.4871  -2.4851
    -2.4781  -2.4774  -2.4571  -2.4451  -2.4438  -2.4402  -2.4366  -2.4053
    -2.4031  -2.4010  -2.3449  -2.3411  -2.3271  -2.3267  -2.3152  -2.3128
    -2.2886  -2.2882  -2.2839  -2.2729  -2.2704  -2.2610  -2.2584  -2.2439
    -2.2423  -2.2168  -2.2158  -2.2062  -2.2056  -2.1964  -2.1956  -2.1799
    -2.1654  -2.1431  -2.0793  -2.0753  -2.0552  -2.0547  -2.0443  -2.0415
    -1.9947  -1.9904  -1.9762  -1.9581  -1.9464  -1.9447  -1.9275  -1.9096
    -1.9083  -1.8959  -1.8907  -1.8651  -1.8580  -1.8551  -1.8491  -1.8472
    -1.8411  -1.8384  -1.8243  -1.8140  -1.8121  -1.8032  -1.8029  -1.8025
    -1.8016  -1.8009  -1.7873  -1.7776  -1.7664  -1.7652  -1.7576  -1.7462
    -1.7452  -1.7421  -1.7403  -1.7402  -1.7336  -1.7190  -1.6967  -1.6934
    -1.6540  -1.6351  -1.6339  -1.5893  -1.5888  -1.5885  -1.5791  -1.5747
    -1.5657  -1.5608  -1.5571  -1.5472  -1.5464  -1.5401  -1.5261  -1.5191
    -1.4886  -1.4879  -1.4707  -1.4496  -1.4474  -1.4094  -1.4074  -1.3593
    -1.3571  -1.3372  -1.3143  -1.3115  -1.3111  -1.3058  -1.3037  -1.2860
    -1.2852  -1.2851  -1.2846  -1.2834  -1.2822  -1.2809  -1.2764  -1.2696
    -1.2517  -1.2501  -1.2189  -1.2179  -1.2148  -1.1959  -1.1949  -1.1914
    -1.1895  -1.1872  -1.1732  -1.1507  -1.1449  -1.1259  -1.1234  -1.1149
    -1.1032  -1.0921  -1.0912  -1.0631  -1.0618  -1.0559  -1.0526  -1.0162
    -1.0159  -1.0057  -1.0043  -1.0039  -1.0008  -0.9777  -0.9774  -0.9635
    -0.9563  -0.9558  -0.9454  -0.9434  -0.9418  -0.9384  -0.9313  -0.9208
    -0.9183  -0.9131  -0.9128  -0.9063  -0.9022  -0.8974  -0.8862  -0.8439
    -0.8423  -0.8419  -0.8395  -0.8384  -0.8359  -0.8078  -0.8016  -0.7935
    -0.7765  -0.7722  -0.7670  -0.7663  -0.7587  -0.7509  -0.7499  -0.7146
    -0.7128  -0.7023  -0.7021  -0.6823  -0.6818  -0.6666  -0.6427  -0.6345
    -0.6173  -0.6163  -0.5791  -0.5786  -0.5758  -0.5755  -0.5738  -0.5685
    -0.5681  -0.5672  -0.5632  -0.5610  -0.5283  -0.5282  -0.5278  -0.5274
    -0.5244  -0.5152  -0.5106  -0.5102  -0.4826  -0.2214  -0.2137  -0.1713
    -0.1603  -0.1366  -0.0765   0.0737   0.0752   0.1090   0.3889   0.3925
     0.7267   0.7360   0.7739   0.7757   0.8225   0.8279   0.9830   0.9875
     1.1121   1.1140   1.2282   1.7235   1.7672   1.7687   1.8057   1.8068
     1.9343   1.9497   1.9977   2.0026   2.1807   2.1831   2.4637   2.4888
     2.5013   2.5163   2.9410   2.9530   2.9730   2.9746   2.9893   2.9920
     3.0553   3.0565   3.1968   3.3314   3.3328   3.5197   3.5247   3.6303
     3.6991   3.7031   3.9985   4.0012   4.0549   4.0601   4.0632   4.1881
     4.2049   4.2077   4.2119   4.5019   4.5036   4.5378   4.5407   4.6552
     4.6559   4.7107   4.7262   4.9278   5.1741   5.5998   5.6042   5.6473
     5.6795   5.7974   5.8089   5.8169   5.8774   5.8863   5.8996   5.9018
     5.9810   6.0144   6.0309   6.1106   6.2755   6.2948   6.2983   6.3078
     6.3126   6.3152   6.3291   6.3954   6.4194   6.5015   6.5230   6.5669

     the Fermi energy is     1.0566 ev

!    total energy              =   -7379.98068851 Ry
     Harris-Foulkes estimate   =   -7379.98068852 Ry
     estimated scf accuracy    <          3.2E-09 Ry

     The total energy is the sum of the following terms:

     one-electron contribution =  -48799.31030267 Ry
     hartree contribution      =   24952.12459130 Ry
     xc contribution           =   -3556.25027190 Ry
     ewald contribution        =   20023.45428149 Ry
     smearing contrib. (-TS)   =       0.00101326 Ry

     convergence has been achieved in  26 iterations

     Writing output data file 2206639.save

     init_run     :     93.82s CPU     98.96s WALL (       1 calls)
     electrons    :   5539.23s CPU   5819.96s WALL (       1 calls)

     Called by init_run:
     wfcinit      :     73.77s CPU     78.47s WALL (       1 calls)
     potinit      :      2.72s CPU      2.88s WALL (       1 calls)

     Called by electrons:
     c_bands      :   4646.61s CPU   4875.75s WALL (      27 calls)
     sum_band     :    671.69s CPU    718.36s WALL (      27 calls)
     v_of_rho     :     11.83s CPU     13.25s WALL (      27 calls)
     newd         :    215.42s CPU    218.29s WALL (      27 calls)
     mix_rho      :      1.94s CPU      2.30s WALL (      27 calls)

     Called by c_bands:
     init_us_2    :      8.34s CPU      8.69s WALL (     330 calls)
     cegterg      :   4497.00s CPU   4724.60s WALL (     162 calls)

     Called by *egterg:
     h_psi        :   1767.28s CPU   1966.98s WALL (     788 calls)
     s_psi        :    332.65s CPU    334.30s WALL (     788 calls)
     g_psi        :      4.20s CPU      4.23s WALL (     620 calls)
     cdiaghg      :   1350.11s CPU   1353.81s WALL (     776 calls)

     Called by h_psi:
     add_vuspsi   :    335.42s CPU    337.23s WALL (     788 calls)

     General routines
     calbec       :    473.29s CPU    475.07s WALL (     950 calls)
     fft          :     35.46s CPU     37.81s WALL (     432 calls)
     ffts         :      0.92s CPU      1.13s WALL (      54 calls)
     fftw         :   1271.80s CPU   1491.56s WALL (  433358 calls)
     interpolate  :      2.40s CPU      3.00s WALL (      54 calls)
     davcio       :      0.00s CPU      0.12s WALL (       6 calls)

     Parallel routines
     fft_scatter  :    834.02s CPU    991.76s WALL (  433844 calls)

     PWSCF        :     1h34m CPU        1h38m WALL


   This run was terminated on:  19:49:15   7Aug2015            

=------------------------------------------------------------------------------=
   JOB DONE.
=------------------------------------------------------------------------------=
