Setting SGE environment for SCC

     Program PWSCF v.5.1.2 starts on  7Aug2015 at 13:21:18 

     This program is part of the open-source Quantum ESPRESSO suite
     for quantum simulation of materials; please cite
         "P. Giannozzi et al., J. Phys.:Condens. Matter 21 395502 (2009);
          URL http://www.quantum-espresso.org", 
     in publications or presentations arising from this work. More details at
     http://www.quantum-espresso.org/quote

     Parallel version (MPI), running on    32 processors
     R & G space division:  proc/nbgrp/npool/nimage =      32
     Reading input from top.O1.Au5859.d.2.7.phi.0.psi.0.in
Warning: card &IONS ignored
Warning: card / ignored
Warning: card &CELL ignored
Warning: card / ignored

     Current dimensions of program PWSCF are:
     Max number of different atomic species (ntypx) = 10
     Max number of k-points (npk) =  40000
     Max angular momentum in pseudopotentials (lmaxx) =  3

     Subspace diagonalization in iterative solution of the eigenvalue problem:
     a serial algorithm will be used


     Parallelization info
     --------------------
     sticks:   dense  smooth     PW     G-vecs:    dense   smooth      PW
     Min         578     289     74               118518    41891    5486
     Max         579     290     75               118533    41932    5497
     Sum       18505    9265   2385              3792731  1341081  175711


     Title: 
     top.O1.Au5859.d.2.7.phi.0.psi.0                                            


     bravais-lattice index     =            8
     lattice parameter (alat)  =      24.1233  a.u.
     unit-cell volume          =   28076.2361 (a.u.)^3
     number of atoms/cell      =           75
     number of atomic types    =            3
     number of electrons       =       800.00
     number of Kohn-Sham states=          480
     kinetic-energy cutoff     =      50.0000  Ry
     charge density cutoff     =     400.0000  Ry
     convergence threshold     =      1.0E-08
     mixing beta               =       0.7000
     number of iterations used =            8  plain     mixing
     Exchange-correlation      =  SLA  PW   PBE  PBE ( 1  4  3  4 0 0)

     celldm(1)=  24.123277  celldm(2)=   1.000000  celldm(3)=   2.000000
     celldm(4)=   0.000000  celldm(5)=   0.000000  celldm(6)=   0.000000

     crystal axes: (cart. coord. in units of alat)
               a(1) = (   1.000000   0.000000   0.000000 )  
               a(2) = (   0.000000   1.000000   0.000000 )  
               a(3) = (   0.000000   0.000000   2.000000 )  

     reciprocal axes: (cart. coord. in units 2 pi/alat)
               b(1) = (  1.000000  0.000000  0.000000 )  
               b(2) = (  0.000000  1.000000  0.000000 )  
               b(3) = (  0.000000  0.000000  0.500000 )  


     PseudoPot. # 1 for Au read from file:
     /home/scc/andrejb/qe/pseudo/Au.pbe-nd-van.UPF
     MD5 check sum: 458681b50f36d87ef23c61b04bba420a
     Pseudo is Ultrasoft + core correction, Zval = 11.0
     Generated by new atomic code, or converted to UPF format
     Using radial grid of  985 points,  3 beta functions with: 
                l(1) =   1
                l(2) =   2
                l(3) =   2
     Q(r) pseudized with  8 coefficients,  rinner =    1.100   1.100   1.100
                                                       1.100   1.100

     PseudoPot. # 2 for H  read from file:
     /home/scc/andrejb/qe/pseudo/H.pbe-van_ak.UPF
     MD5 check sum: 403db7282739603aa925980fa9b8608d
     Pseudo is Ultrasoft, Zval =  1.0
     Generated by new atomic code, or converted to UPF format
     Using radial grid of  615 points,  1 beta functions with: 
                l(1) =   0
     Q(r) pseudized with  8 coefficients,  rinner =    0.800

     PseudoPot. # 3 for O  read from file:
     /home/scc/andrejb/qe/pseudo/O.pbe-van_ak.UPF
     MD5 check sum: 4b8c549914a63cae506c6ff22b5af4fe
     Pseudo is Ultrasoft, Zval =  6.0
     Generated by new atomic code, or converted to UPF format
     Using radial grid of  737 points,  4 beta functions with: 
                l(1) =   0
                l(2) =   0
                l(3) =   1
                l(4) =   1
     Q(r) pseudized with  8 coefficients,  rinner =    0.800   0.800   0.800


     atomic species   valence    mass     pseudopotential
        Au            11.00   196.96657     Au( 1.00)
        H              1.00     1.01000     H ( 1.00)
        O              6.00    16.00000     O ( 1.00)

     No symmetry found



   Cartesian axes

     site n.     atom                  positions (alat units)
         1           O   tau(   1) = (   0.1666051   0.1666105   0.7108218  )
         2           H   tau(   2) = (   0.1195275   0.1274390   0.7563157  )
         3           H   tau(   3) = (   0.2122554   0.2046122   0.7586794  )
         4           Au  tau(   4) = (   0.0000000   0.0000000   0.0000000  )
         5           Au  tau(   5) = (   0.3332217   0.0000000   0.0000000  )
         6           Au  tau(   6) = (   0.6664434   0.0000000   0.0000000  )
         7           Au  tau(   7) = (   0.1666109   0.1666109   0.0000000  )
         8           Au  tau(   8) = (   0.4998326   0.1666109   0.0000000  )
         9           Au  tau(   9) = (   0.8330542   0.1666109   0.0000000  )
        10           Au  tau(  10) = (   0.0000000   0.3332217   0.0000000  )
        11           Au  tau(  11) = (   0.3332217   0.3332217   0.0000000  )
        12           Au  tau(  12) = (   0.6664434   0.3332217   0.0000000  )
        13           Au  tau(  13) = (   0.1666109   0.4998326   0.0000000  )
        14           Au  tau(  14) = (   0.4998326   0.4998326   0.0000000  )
        15           Au  tau(  15) = (   0.8330542   0.4998326   0.0000000  )
        16           Au  tau(  16) = (   0.0000000   0.6664434   0.0000000  )
        17           Au  tau(  17) = (   0.3332217   0.6664434   0.0000000  )
        18           Au  tau(  18) = (   0.6664434   0.6664434   0.0000000  )
        19           Au  tau(  19) = (   0.1666109   0.8330542   0.0000000  )
        20           Au  tau(  20) = (   0.4998326   0.8330542   0.0000000  )
        21           Au  tau(  21) = (   0.8330542   0.8330542   0.0000000  )
        22           Au  tau(  22) = (   0.1666109   0.0000000   0.1666109  )
        23           Au  tau(  23) = (   0.4998326   0.0000000   0.1666109  )
        24           Au  tau(  24) = (   0.8330542   0.0000000   0.1666109  )
        25           Au  tau(  25) = (   0.0000000   0.1666109   0.1666109  )
        26           Au  tau(  26) = (   0.3332217   0.1666109   0.1666109  )
        27           Au  tau(  27) = (   0.6664434   0.1666109   0.1666109  )
        28           Au  tau(  28) = (   0.1666109   0.3332217   0.1666109  )
        29           Au  tau(  29) = (   0.4998326   0.3332217   0.1666109  )
        30           Au  tau(  30) = (   0.8330542   0.3332217   0.1666109  )
        31           Au  tau(  31) = (   0.0000000   0.4998326   0.1666109  )
        32           Au  tau(  32) = (   0.3332217   0.4998326   0.1666109  )
        33           Au  tau(  33) = (   0.6664434   0.4998326   0.1666109  )
        34           Au  tau(  34) = (   0.1666109   0.6664434   0.1666109  )
        35           Au  tau(  35) = (   0.4998326   0.6664434   0.1666109  )
        36           Au  tau(  36) = (   0.8330542   0.6664434   0.1666109  )
        37           Au  tau(  37) = (   0.0000000   0.8330542   0.1666109  )
        38           Au  tau(  38) = (   0.3332217   0.8330542   0.1666109  )
        39           Au  tau(  39) = (   0.6664434   0.8330542   0.1666109  )
        40           Au  tau(  40) = (  -0.0000182  -0.0000182   0.3335478  )
        41           Au  tau(  41) = (   0.3332215  -0.0000181   0.3335473  )
        42           Au  tau(  42) = (   0.6664447  -0.0000183   0.3335481  )
        43           Au  tau(  43) = (  -0.0000181   0.3332215   0.3335473  )
        44           Au  tau(  44) = (   0.3332215   0.3332215   0.3335468  )
        45           Au  tau(  45) = (   0.6664445   0.3332215   0.3335477  )
        46           Au  tau(  46) = (  -0.0000183   0.6664447   0.3335481  )
        47           Au  tau(  47) = (   0.3332215   0.6664445   0.3335477  )
        48           Au  tau(  48) = (   0.6664446   0.6664446   0.3335486  )
        49           Au  tau(  49) = (   0.1666097   0.1666097   0.3335483  )
        50           Au  tau(  50) = (   0.4998320   0.1666098   0.3335477  )
        51           Au  tau(  51) = (   0.8330732   0.1666096   0.3335480  )
        52           Au  tau(  52) = (   0.1666098   0.4998320   0.3335477  )
        53           Au  tau(  53) = (   0.4998322   0.4998322   0.3335470  )
        54           Au  tau(  54) = (   0.8330731   0.4998322   0.3335474  )
        55           Au  tau(  55) = (   0.1666096   0.8330732   0.3335480  )
        56           Au  tau(  56) = (   0.4998322   0.8330731   0.3335474  )
        57           Au  tau(  57) = (   0.8330731   0.8330731   0.3335478  )
        58           Au  tau(  58) = (   0.1666104  -0.0000111   0.4993095  )
        59           Au  tau(  59) = (   0.4998323  -0.0000112   0.4993099  )
        60           Au  tau(  60) = (   0.8330660  -0.0000111   0.4993009  )
        61           Au  tau(  61) = (  -0.0000111   0.1666104   0.4993095  )
        62           Au  tau(  62) = (   0.3332213   0.1666106   0.4993185  )
        63           Au  tau(  63) = (   0.6664437   0.1666106   0.4993187  )
        64           Au  tau(  64) = (   0.1666106   0.3332213   0.4993185  )
        65           Au  tau(  65) = (   0.4998324   0.3332216   0.4993185  )
        66           Au  tau(  66) = (   0.8330658   0.3332215   0.4993102  )
        67           Au  tau(  67) = (  -0.0000112   0.4998323   0.4993099  )
        68           Au  tau(  68) = (   0.3332216   0.4998324   0.4993185  )
        69           Au  tau(  69) = (   0.6664437   0.4998325   0.4993187  )
        70           Au  tau(  70) = (   0.1666106   0.6664437   0.4993187  )
        71           Au  tau(  71) = (   0.4998325   0.6664437   0.4993187  )
        72           Au  tau(  72) = (   0.8330658   0.6664438   0.4993102  )
        73           Au  tau(  73) = (  -0.0000111   0.8330660   0.4993009  )
        74           Au  tau(  74) = (   0.3332215   0.8330658   0.4993102  )
        75           Au  tau(  75) = (   0.6664438   0.8330658   0.4993102  )

     number of k points=     6  Marzari-Vanderbilt smearing, width (Ry)=  0.0200
                       cart. coord. in units 2pi/alat
        k(    1) = (   0.2500000   0.2500000   0.0833333), wk =   0.3333333
        k(    2) = (   0.2500000   0.2500000  -0.2500000), wk =   0.3333333
        k(    3) = (  -0.2500000  -0.2500000   0.0833333), wk =   0.3333333
        k(    4) = (  -0.2500000   0.2500000  -0.0833333), wk =   0.3333333
        k(    5) = (   0.2500000  -0.2500000  -0.0833333), wk =   0.3333333
        k(    6) = (  -0.2500000   0.2500000   0.2500000), wk =   0.3333333

     Dense  grid:  3792731 G-vectors     FFT dimensions: ( 160, 160, 320)

     Smooth grid:  1341081 G-vectors     FFT dimensions: ( 120, 120, 225)

     Largest allocated arrays     est. size (Mb)     dimensions
        Kohn-Sham Wavefunctions        38.58 Mb     (    5267,  480)
        NL pseudopotentials            76.03 Mb     (    5267,  946)
        Each V/rho on FFT grid          3.91 Mb     (  256000)
        Each G-vector array             0.90 Mb     (  118520)
        G-vector shells                 0.08 Mb     (   10286)
     Largest temporary arrays     est. size (Mb)     dimensions
        Auxiliary wavefunctions       154.31 Mb     (    5267, 1920)
        Each subspace H/S matrix       56.25 Mb     (    1920, 1920)
        Each <psi_i|beta_j> matrix      6.93 Mb     (     946,  480)
        Arrays for rho mixing          31.25 Mb     (  256000,    8)

     Initial potential from superposition of free atoms
     Check: negative starting charge=   -1.945094

     starting charge  799.16392, renormalised to  800.00000

     negative rho (up, down):  1.947E+00 0.000E+00
     Starting wfc are  654 randomized atomic wfcs

     total cpu time spent up to now is      131.6 secs

     Self-consistent Calculation

     iteration #  1     ecut=    50.00 Ry     beta=0.70
     Davidson diagonalization with overlap
     ethr =  1.00E-02,  avg # of iterations =  3.0

     Threshold (ethr) on eigenvalues was too large:
     Diagonalizing with lowered threshold

     Davidson diagonalization with overlap
     ethr =  5.00E-04,  avg # of iterations =  2.0

     negative rho (up, down):  1.932E+00 0.000E+00

     total cpu time spent up to now is      633.9 secs

     total energy              =   -7377.39668571 Ry
     Harris-Foulkes estimate   =   -7380.96395536 Ry
     estimated scf accuracy    <       4.52885494 Ry

     iteration #  2     ecut=    50.00 Ry     beta=0.70
     Davidson diagonalization with overlap
     ethr =  5.66E-04,  avg # of iterations = 11.3

     negative rho (up, down):  1.929E+00 0.000E+00

     total cpu time spent up to now is     1429.7 secs

     total energy              =   -7368.50848500 Ry
     Harris-Foulkes estimate   =   -7388.05224131 Ry
     estimated scf accuracy    <     101.44836920 Ry

     iteration #  3     ecut=    50.00 Ry     beta=0.70
     Davidson diagonalization with overlap
     ethr =  5.66E-04,  avg # of iterations =  6.0

     negative rho (up, down):  1.946E+00 0.000E+00

     total cpu time spent up to now is     1923.6 secs

     total energy              =   -7378.94702102 Ry
     Harris-Foulkes estimate   =   -7380.65771350 Ry
     estimated scf accuracy    <       6.33313890 Ry

     iteration #  4     ecut=    50.00 Ry     beta=0.70
     Davidson diagonalization with overlap
     ethr =  5.66E-04,  avg # of iterations =  5.2

     negative rho (up, down):  1.951E+00 0.000E+00

     total cpu time spent up to now is     2209.3 secs

     total energy              =   -7379.43200866 Ry
     Harris-Foulkes estimate   =   -7380.39029041 Ry
     estimated scf accuracy    <       5.86188433 Ry

     iteration #  5     ecut=    50.00 Ry     beta=0.70
     Davidson diagonalization with overlap
     ethr =  5.66E-04,  avg # of iterations =  5.2

     negative rho (up, down):  1.960E+00 0.000E+00

     total cpu time spent up to now is     2474.2 secs

     total energy              =   -7379.81295717 Ry
     Harris-Foulkes estimate   =   -7380.20400781 Ry
     estimated scf accuracy    <       2.78852809 Ry

     iteration #  6     ecut=    50.00 Ry     beta=0.70
     Davidson diagonalization with overlap
     ethr =  3.49E-04,  avg # of iterations =  4.8

     negative rho (up, down):  1.964E+00 0.000E+00

     total cpu time spent up to now is     2745.9 secs

     total energy              =   -7379.96143733 Ry
     Harris-Foulkes estimate   =   -7380.00831615 Ry
     estimated scf accuracy    <       0.15020895 Ry

     iteration #  7     ecut=    50.00 Ry     beta=0.70
     Davidson diagonalization with overlap
     ethr =  1.88E-05,  avg # of iterations = 13.7

     negative rho (up, down):  1.966E+00 0.000E+00

     total cpu time spent up to now is     3161.9 secs

     total energy              =   -7379.96769875 Ry
     Harris-Foulkes estimate   =   -7380.00109943 Ry
     estimated scf accuracy    <       0.14831295 Ry

     iteration #  8     ecut=    50.00 Ry     beta=0.70
     Davidson diagonalization with overlap
     ethr =  1.85E-05,  avg # of iterations =  3.0

     negative rho (up, down):  1.968E+00 0.000E+00

     total cpu time spent up to now is     3399.2 secs

     total energy              =   -7379.97025359 Ry
     Harris-Foulkes estimate   =   -7379.99307146 Ry
     estimated scf accuracy    <       0.10067019 Ry

     iteration #  9     ecut=    50.00 Ry     beta=0.70
     Davidson diagonalization with overlap
     ethr =  1.26E-05,  avg # of iterations =  5.0

     negative rho (up, down):  1.969E+00 0.000E+00

     total cpu time spent up to now is     3659.4 secs

     total energy              =   -7379.97638780 Ry
     Harris-Foulkes estimate   =   -7379.98489962 Ry
     estimated scf accuracy    <       0.02897734 Ry

     iteration # 10     ecut=    50.00 Ry     beta=0.70
     Davidson diagonalization with overlap
     ethr =  3.62E-06,  avg # of iterations =  9.0

     negative rho (up, down):  1.970E+00 0.000E+00

     total cpu time spent up to now is     3995.3 secs

     total energy              =   -7379.97939035 Ry
     Harris-Foulkes estimate   =   -7379.98185149 Ry
     estimated scf accuracy    <       0.00671945 Ry

     iteration # 11     ecut=    50.00 Ry     beta=0.70
     Davidson diagonalization with overlap
     ethr =  8.40E-07,  avg # of iterations =  3.5

     negative rho (up, down):  1.970E+00 0.000E+00

     total cpu time spent up to now is     4232.5 secs

     total energy              =   -7379.98033131 Ry
     Harris-Foulkes estimate   =   -7379.98108950 Ry
     estimated scf accuracy    <       0.00201438 Ry

     iteration # 12     ecut=    50.00 Ry     beta=0.70
     Davidson diagonalization with overlap
     ethr =  2.52E-07,  avg # of iterations =  2.0

     negative rho (up, down):  1.970E+00 0.000E+00

     total cpu time spent up to now is     4450.7 secs

     total energy              =   -7379.98057580 Ry
     Harris-Foulkes estimate   =   -7379.98080331 Ry
     estimated scf accuracy    <       0.00063160 Ry

     iteration # 13     ecut=    50.00 Ry     beta=0.70
     Davidson diagonalization with overlap
     ethr =  7.89E-08,  avg # of iterations =  3.0

     negative rho (up, down):  1.971E+00 0.000E+00

     total cpu time spent up to now is     4731.2 secs

     total energy              =   -7379.98049214 Ry
     Harris-Foulkes estimate   =   -7379.98094700 Ry
     estimated scf accuracy    <       0.00232376 Ry

     iteration # 14     ecut=    50.00 Ry     beta=0.70
     Davidson diagonalization with overlap
     ethr =  7.89E-08,  avg # of iterations =  2.3

     negative rho (up, down):  1.971E+00 0.000E+00

     total cpu time spent up to now is     4995.6 secs

     total energy              =   -7379.98069607 Ry
     Harris-Foulkes estimate   =   -7379.98073517 Ry
     estimated scf accuracy    <       0.00014654 Ry

     iteration # 15     ecut=    50.00 Ry     beta=0.70
     Davidson diagonalization with overlap
     ethr =  1.83E-08,  avg # of iterations =  2.0

     negative rho (up, down):  1.970E+00 0.000E+00

     total cpu time spent up to now is     5230.6 secs

     total energy              =   -7379.98071252 Ry
     Harris-Foulkes estimate   =   -7379.98072869 Ry
     estimated scf accuracy    <       0.00008644 Ry

     iteration # 16     ecut=    50.00 Ry     beta=0.70
     Davidson diagonalization with overlap
     ethr =  1.08E-08,  avg # of iterations =  2.0

     negative rho (up, down):  1.970E+00 0.000E+00

     total cpu time spent up to now is     5463.6 secs

     total energy              =   -7379.98071313 Ry
     Harris-Foulkes estimate   =   -7379.98072938 Ry
     estimated scf accuracy    <       0.00011688 Ry

     iteration # 17     ecut=    50.00 Ry     beta=0.70
     Davidson diagonalization with overlap
     ethr =  1.08E-08,  avg # of iterations =  1.0

     negative rho (up, down):  1.971E+00 0.000E+00

     total cpu time spent up to now is     5696.5 secs

     total energy              =   -7379.98072104 Ry
     Harris-Foulkes estimate   =   -7379.98072280 Ry
     estimated scf accuracy    <       0.00000789 Ry

     iteration # 18     ecut=    50.00 Ry     beta=0.70
     Davidson diagonalization with overlap
     ethr =  9.86E-10,  avg # of iterations =  2.0

     negative rho (up, down):  1.971E+00 0.000E+00

     total cpu time spent up to now is     5911.4 secs

     total energy              =   -7379.98072131 Ry
     Harris-Foulkes estimate   =   -7379.98072272 Ry
     estimated scf accuracy    <       0.00000627 Ry

     iteration # 19     ecut=    50.00 Ry     beta=0.70
     Davidson diagonalization with overlap
     ethr =  7.83E-10,  avg # of iterations =  2.0

     negative rho (up, down):  1.971E+00 0.000E+00

     total cpu time spent up to now is     6151.8 secs

     total energy              =   -7379.98072196 Ry
     Harris-Foulkes estimate   =   -7379.98072224 Ry
     estimated scf accuracy    <       0.00000105 Ry

     iteration # 20     ecut=    50.00 Ry     beta=0.70
     Davidson diagonalization with overlap
     ethr =  1.31E-10,  avg # of iterations =  2.0

     negative rho (up, down):  1.971E+00 0.000E+00

     total cpu time spent up to now is     6367.7 secs

     total energy              =   -7379.98072208 Ry
     Harris-Foulkes estimate   =   -7379.98072216 Ry
     estimated scf accuracy    <       0.00000019 Ry

     iteration # 21     ecut=    50.00 Ry     beta=0.70
     Davidson diagonalization with overlap
     ethr =  2.39E-11,  avg # of iterations =  3.0

     negative rho (up, down):  1.971E+00 0.000E+00

     total cpu time spent up to now is     6612.0 secs

     total energy              =   -7379.98072210 Ry
     Harris-Foulkes estimate   =   -7379.98072214 Ry
     estimated scf accuracy    <       0.00000010 Ry

     iteration # 22     ecut=    50.00 Ry     beta=0.70
     Davidson diagonalization with overlap
     ethr =  1.27E-11,  avg # of iterations =  2.0

     negative rho (up, down):  1.971E+00 0.000E+00

     total cpu time spent up to now is     6852.9 secs

     total energy              =   -7379.98072211 Ry
     Harris-Foulkes estimate   =   -7379.98072213 Ry
     estimated scf accuracy    <       0.00000010 Ry

     iteration # 23     ecut=    50.00 Ry     beta=0.70
     Davidson diagonalization with overlap
     ethr =  1.23E-11,  avg # of iterations =  2.0

     negative rho (up, down):  1.971E+00 0.000E+00

     total cpu time spent up to now is     7074.2 secs

     total energy              =   -7379.98072211 Ry
     Harris-Foulkes estimate   =   -7379.98072213 Ry
     estimated scf accuracy    <       0.00000004 Ry

     iteration # 24     ecut=    50.00 Ry     beta=0.70
     Davidson diagonalization with overlap
     ethr =  5.36E-12,  avg # of iterations =  2.0

     negative rho (up, down):  1.971E+00 0.000E+00

     total cpu time spent up to now is     7291.9 secs

     total energy              =   -7379.98072212 Ry
     Harris-Foulkes estimate   =   -7379.98072212 Ry
     estimated scf accuracy    <       0.00000003 Ry

     iteration # 25     ecut=    50.00 Ry     beta=0.70
     Davidson diagonalization with overlap
     ethr =  3.26E-12,  avg # of iterations =  2.0

     negative rho (up, down):  1.971E+00 0.000E+00

     total cpu time spent up to now is     7516.0 secs

     total energy              =   -7379.98072212 Ry
     Harris-Foulkes estimate   =   -7379.98072212 Ry
     estimated scf accuracy    <       0.00000002 Ry

     iteration # 26     ecut=    50.00 Ry     beta=0.70
     Davidson diagonalization with overlap
     ethr =  2.88E-12,  avg # of iterations =  1.5

     negative rho (up, down):  1.971E+00 0.000E+00

     total cpu time spent up to now is     7720.2 secs

     End of self-consistent calculation

          k = 0.2500 0.2500 0.0833 (167653 PWs)   bands (ev):

   -19.6936  -7.4944  -6.7301  -6.2000  -6.1996  -5.7615  -5.3603  -5.2595
    -5.2592  -5.0375  -5.0373  -4.9445  -4.9414  -4.8083  -4.7992  -4.6898
    -4.6016  -4.5973  -4.5768  -4.5761  -4.3976  -4.3940  -4.3933  -4.3670
    -4.3636  -4.3623  -4.3590  -4.3095  -4.3059  -4.3027  -4.3020  -4.2387
    -4.2111  -4.2101  -4.1669  -4.1502  -4.1491  -4.1185  -4.1134  -4.0988
    -4.0944  -4.0758  -4.0756  -4.0485  -4.0117  -4.0060  -4.0056  -4.0013
    -3.9998  -3.9720  -3.9587  -3.9401  -3.9149  -3.9101  -3.9080  -3.9059
    -3.9038  -3.9008  -3.8970  -3.8665  -3.8144  -3.8057  -3.8031  -3.7683
    -3.7475  -3.7390  -3.7363  -3.7251  -3.7136  -3.7127  -3.7015  -3.6514
    -3.6512  -3.6457  -3.6424  -3.5607  -3.5548  -3.5384  -3.5338  -3.5031
    -3.4949  -3.4878  -3.4622  -3.4621  -3.4178  -3.4167  -3.4154  -3.4151
    -3.3907  -3.3882  -3.3096  -3.3089  -3.3063  -3.2941  -3.2783  -3.2761
    -3.2629  -3.2625  -3.2559  -3.2558  -3.2129  -3.2120  -3.1904  -3.1871
    -3.1539  -3.1495  -3.1271  -3.1058  -3.1044  -3.0597  -3.0592  -3.0263
    -2.9994  -2.9985  -2.9982  -2.9957  -2.9938  -2.9929  -2.9648  -2.9573
    -2.9188  -2.9186  -2.8975  -2.8735  -2.8709  -2.8708  -2.8648  -2.8636
    -2.8598  -2.8597  -2.8247  -2.8238  -2.8236  -2.8183  -2.8160  -2.8131
    -2.7574  -2.7524  -2.7484  -2.7477  -2.7260  -2.7247  -2.7205  -2.6313
    -2.6212  -2.6211  -2.6120  -2.6110  -2.6055  -2.6049  -2.6032  -2.5954
    -2.5953  -2.5850  -2.5772  -2.5751  -2.5718  -2.5694  -2.5600  -2.5536
    -2.5522  -2.5302  -2.5201  -2.5183  -2.5036  -2.5035  -2.4866  -2.4848
    -2.4777  -2.4772  -2.4567  -2.4447  -2.4437  -2.4399  -2.4365  -2.4050
    -2.4027  -2.4005  -2.3445  -2.3408  -2.3270  -2.3266  -2.3150  -2.3135
    -2.2882  -2.2881  -2.2836  -2.2725  -2.2694  -2.2609  -2.2582  -2.2434
    -2.2422  -2.2165  -2.2155  -2.2058  -2.2054  -2.1961  -2.1952  -2.1777
    -2.1646  -2.1426  -2.0799  -2.0743  -2.0548  -2.0542  -2.0442  -2.0404
    -1.9949  -1.9904  -1.9753  -1.9578  -1.9468  -1.9444  -1.9276  -1.9102
    -1.9079  -1.8957  -1.8892  -1.8664  -1.8583  -1.8542  -1.8503  -1.8469
    -1.8409  -1.8384  -1.8259  -1.8135  -1.8125  -1.8029  -1.8026  -1.8020
    -1.8015  -1.7991  -1.7882  -1.7832  -1.7658  -1.7655  -1.7569  -1.7467
    -1.7449  -1.7423  -1.7403  -1.7397  -1.7330  -1.7150  -1.6965  -1.6822
    -1.6537  -1.6345  -1.6311  -1.5888  -1.5884  -1.5883  -1.5779  -1.5768
    -1.5643  -1.5623  -1.5545  -1.5503  -1.5463  -1.5410  -1.5254  -1.5245
    -1.4882  -1.4877  -1.4703  -1.4491  -1.4452  -1.4090  -1.4080  -1.3585
    -1.3572  -1.3372  -1.3138  -1.3111  -1.3109  -1.3044  -1.3030  -1.2855
    -1.2849  -1.2847  -1.2836  -1.2830  -1.2828  -1.2796  -1.2741  -1.2687
    -1.2512  -1.2499  -1.2184  -1.2174  -1.2167  -1.1957  -1.1952  -1.1910
    -1.1876  -1.1859  -1.1749  -1.1497  -1.1466  -1.1252  -1.1229  -1.1157
    -1.1028  -1.0918  -1.0916  -1.0626  -1.0615  -1.0547  -1.0524  -1.0155
    -1.0135  -1.0050  -1.0046  -1.0037  -1.0016  -0.9774  -0.9771  -0.9631
    -0.9561  -0.9556  -0.9445  -0.9437  -0.9411  -0.9404  -0.9311  -0.9196
    -0.9191  -0.9128  -0.9124  -0.9068  -0.9006  -0.8995  -0.8858  -0.8439
    -0.8421  -0.8416  -0.8386  -0.8366  -0.8357  -0.8050  -0.8041  -0.7932
    -0.7752  -0.7723  -0.7667  -0.7664  -0.7584  -0.7498  -0.7477  -0.7141
    -0.7136  -0.7021  -0.7018  -0.6819  -0.6815  -0.6663  -0.6425  -0.6342
    -0.6168  -0.6163  -0.5789  -0.5782  -0.5752  -0.5751  -0.5734  -0.5681
    -0.5677  -0.5666  -0.5627  -0.5607  -0.5279  -0.5277  -0.5273  -0.5269
    -0.5216  -0.5177  -0.5105  -0.5097  -0.4823  -0.2210  -0.2134  -0.1684
    -0.1616  -0.1364  -0.0758   0.0742   0.0756   0.1079   0.3909   0.3913
     0.7286   0.7343   0.7749   0.7751   0.8235   0.8273   0.9869   0.9874
     1.1124   1.1142   1.2280   1.7225   1.7669   1.7691   1.8063   1.8067
     1.9383   1.9478   1.9999   2.0014   2.1820   2.1824   2.4632   2.4903
     2.4981   2.5169   2.9439   2.9514   2.9733   2.9743   2.9900   2.9919
     3.0562   3.0563   3.1974   3.3306   3.3368   3.5196   3.5307   3.6298
     3.7006   3.7020   4.0008   4.0019   4.0538   4.0608   4.0610   4.1784
     4.2059   4.2121   4.2157   4.5034   4.5035   4.5362   4.5404   4.6543
     4.6588   4.7144   4.7208   4.9405   5.1654   5.6014   5.6064   5.6588
     5.6720   5.8046   5.8090   5.8118   5.8803   5.8849   5.9014   5.9020
     5.9398   6.0121   6.0269   6.1309   6.2821   6.2960   6.3026   6.3108
     6.3129   6.3133   6.3309   6.3593   6.3822   6.4616   6.4914   6.5857

          k = 0.2500 0.2500-0.2500 (167588 PWs)   bands (ev):

   -19.6936  -7.4944  -6.7301  -6.2000  -6.1996  -5.7615  -5.3603  -5.2595
    -5.2592  -5.0375  -5.0373  -4.9445  -4.9414  -4.8083  -4.7992  -4.6898
    -4.6016  -4.5973  -4.5768  -4.5761  -4.3976  -4.3940  -4.3933  -4.3670
    -4.3636  -4.3623  -4.3590  -4.3095  -4.3059  -4.3027  -4.3020  -4.2387
    -4.2111  -4.2101  -4.1669  -4.1502  -4.1491  -4.1185  -4.1134  -4.0988
    -4.0944  -4.0758  -4.0756  -4.0485  -4.0117  -4.0060  -4.0056  -4.0013
    -3.9998  -3.9720  -3.9587  -3.9401  -3.9149  -3.9101  -3.9080  -3.9059
    -3.9038  -3.9008  -3.8970  -3.8665  -3.8144  -3.8057  -3.8031  -3.7684
    -3.7475  -3.7390  -3.7363  -3.7251  -3.7136  -3.7127  -3.7015  -3.6514
    -3.6512  -3.6457  -3.6424  -3.5607  -3.5548  -3.5385  -3.5338  -3.5031
    -3.4949  -3.4878  -3.4622  -3.4621  -3.4178  -3.4167  -3.4154  -3.4151
    -3.3907  -3.3882  -3.3096  -3.3089  -3.3063  -3.2941  -3.2783  -3.2761
    -3.2629  -3.2625  -3.2559  -3.2558  -3.2129  -3.2120  -3.1904  -3.1871
    -3.1539  -3.1495  -3.1271  -3.1058  -3.1044  -3.0597  -3.0592  -3.0263
    -2.9994  -2.9985  -2.9982  -2.9956  -2.9938  -2.9929  -2.9648  -2.9574
    -2.9188  -2.9186  -2.8975  -2.8735  -2.8709  -2.8708  -2.8648  -2.8636
    -2.8598  -2.8598  -2.8247  -2.8238  -2.8236  -2.8183  -2.8160  -2.8130
    -2.7574  -2.7524  -2.7484  -2.7477  -2.7260  -2.7247  -2.7205  -2.6313
    -2.6212  -2.6211  -2.6120  -2.6110  -2.6055  -2.6049  -2.6032  -2.5954
    -2.5953  -2.5850  -2.5772  -2.5751  -2.5718  -2.5694  -2.5600  -2.5536
    -2.5522  -2.5302  -2.5201  -2.5183  -2.5036  -2.5035  -2.4866  -2.4848
    -2.4777  -2.4772  -2.4567  -2.4447  -2.4437  -2.4399  -2.4365  -2.4050
    -2.4027  -2.4005  -2.3445  -2.3408  -2.3270  -2.3266  -2.3150  -2.3135
    -2.2881  -2.2881  -2.2836  -2.2725  -2.2694  -2.2609  -2.2582  -2.2434
    -2.2422  -2.2165  -2.2155  -2.2058  -2.2054  -2.1961  -2.1952  -2.1777
    -2.1646  -2.1426  -2.0799  -2.0743  -2.0548  -2.0542  -2.0442  -2.0404
    -1.9949  -1.9904  -1.9753  -1.9578  -1.9468  -1.9444  -1.9276  -1.9102
    -1.9079  -1.8957  -1.8892  -1.8664  -1.8583  -1.8542  -1.8503  -1.8469
    -1.8409  -1.8384  -1.8259  -1.8135  -1.8125  -1.8029  -1.8026  -1.8020
    -1.8015  -1.7991  -1.7882  -1.7832  -1.7658  -1.7655  -1.7569  -1.7467
    -1.7449  -1.7423  -1.7403  -1.7397  -1.7330  -1.7150  -1.6965  -1.6822
    -1.6538  -1.6345  -1.6311  -1.5888  -1.5884  -1.5883  -1.5779  -1.5768
    -1.5643  -1.5623  -1.5545  -1.5503  -1.5463  -1.5409  -1.5254  -1.5245
    -1.4882  -1.4877  -1.4703  -1.4491  -1.4452  -1.4090  -1.4080  -1.3585
    -1.3572  -1.3372  -1.3138  -1.3111  -1.3109  -1.3044  -1.3030  -1.2855
    -1.2849  -1.2847  -1.2836  -1.2830  -1.2828  -1.2796  -1.2741  -1.2687
    -1.2512  -1.2499  -1.2184  -1.2174  -1.2167  -1.1957  -1.1952  -1.1910
    -1.1876  -1.1859  -1.1749  -1.1497  -1.1466  -1.1252  -1.1229  -1.1157
    -1.1028  -1.0918  -1.0916  -1.0626  -1.0615  -1.0547  -1.0524  -1.0155
    -1.0135  -1.0050  -1.0046  -1.0037  -1.0016  -0.9774  -0.9771  -0.9631
    -0.9561  -0.9556  -0.9445  -0.9437  -0.9411  -0.9404  -0.9311  -0.9196
    -0.9191  -0.9128  -0.9124  -0.9068  -0.9006  -0.8995  -0.8858  -0.8439
    -0.8421  -0.8416  -0.8386  -0.8367  -0.8357  -0.8049  -0.8041  -0.7932
    -0.7752  -0.7722  -0.7667  -0.7664  -0.7584  -0.7498  -0.7477  -0.7141
    -0.7136  -0.7021  -0.7018  -0.6819  -0.6815  -0.6663  -0.6425  -0.6342
    -0.6168  -0.6163  -0.5789  -0.5782  -0.5752  -0.5751  -0.5734  -0.5681
    -0.5677  -0.5666  -0.5627  -0.5607  -0.5279  -0.5277  -0.5273  -0.5269
    -0.5216  -0.5177  -0.5105  -0.5097  -0.4823  -0.2210  -0.2134  -0.1684
    -0.1616  -0.1364  -0.0758   0.0742   0.0756   0.1079   0.3909   0.3913
     0.7286   0.7342   0.7749   0.7751   0.8235   0.8273   0.9869   0.9874
     1.1125   1.1142   1.2280   1.7225   1.7669   1.7691   1.8063   1.8067
     1.9383   1.9478   1.9999   2.0014   2.1820   2.1824   2.4633   2.4903
     2.4981   2.5169   2.9439   2.9514   2.9733   2.9743   2.9900   2.9919
     3.0562   3.0563   3.1974   3.3306   3.3368   3.5196   3.5307   3.6298
     3.7006   3.7020   4.0009   4.0019   4.0538   4.0608   4.0610   4.1785
     4.2059   4.2121   4.2157   4.5034   4.5035   4.5362   4.5404   4.6543
     4.6588   4.7144   4.7208   4.9404   5.1625   5.6013   5.6064   5.6590
     5.6684   5.7807   5.8088   5.8117   5.8803   5.8859   5.9014   5.9020
     5.9793   6.0155   6.0789   6.0882   6.2641   6.2960   6.3018   6.3109
     6.3129   6.3133   6.3272   6.4058   6.4520   6.4650   6.5172   6.5711

          k =-0.2500-0.2500 0.0833 (167653 PWs)   bands (ev):

   -19.6936  -7.4944  -6.7301  -6.2000  -6.1996  -5.7615  -5.3603  -5.2595
    -5.2592  -5.0375  -5.0373  -4.9445  -4.9414  -4.8083  -4.7992  -4.6898
    -4.6016  -4.5973  -4.5768  -4.5761  -4.3976  -4.3940  -4.3933  -4.3670
    -4.3636  -4.3623  -4.3590  -4.3095  -4.3059  -4.3027  -4.3020  -4.2387
    -4.2111  -4.2101  -4.1669  -4.1502  -4.1491  -4.1185  -4.1134  -4.0988
    -4.0944  -4.0758  -4.0756  -4.0485  -4.0117  -4.0060  -4.0056  -4.0013
    -3.9998  -3.9720  -3.9587  -3.9401  -3.9149  -3.9101  -3.9080  -3.9059
    -3.9038  -3.9008  -3.8970  -3.8665  -3.8144  -3.8057  -3.8031  -3.7683
    -3.7475  -3.7390  -3.7363  -3.7251  -3.7136  -3.7127  -3.7015  -3.6514
    -3.6512  -3.6457  -3.6424  -3.5607  -3.5548  -3.5384  -3.5338  -3.5031
    -3.4949  -3.4878  -3.4622  -3.4621  -3.4178  -3.4167  -3.4154  -3.4151
    -3.3907  -3.3882  -3.3096  -3.3089  -3.3063  -3.2941  -3.2783  -3.2761
    -3.2629  -3.2625  -3.2559  -3.2558  -3.2129  -3.2120  -3.1904  -3.1871
    -3.1539  -3.1495  -3.1271  -3.1058  -3.1044  -3.0597  -3.0592  -3.0263
    -2.9994  -2.9985  -2.9982  -2.9957  -2.9938  -2.9929  -2.9648  -2.9573
    -2.9188  -2.9186  -2.8975  -2.8735  -2.8709  -2.8708  -2.8648  -2.8636
    -2.8598  -2.8597  -2.8247  -2.8238  -2.8236  -2.8183  -2.8160  -2.8131
    -2.7574  -2.7524  -2.7484  -2.7477  -2.7260  -2.7247  -2.7205  -2.6313
    -2.6212  -2.6211  -2.6120  -2.6110  -2.6055  -2.6049  -2.6032  -2.5954
    -2.5953  -2.5850  -2.5772  -2.5751  -2.5718  -2.5694  -2.5600  -2.5536
    -2.5522  -2.5302  -2.5201  -2.5183  -2.5036  -2.5035  -2.4866  -2.4848
    -2.4777  -2.4772  -2.4567  -2.4447  -2.4437  -2.4399  -2.4365  -2.4050
    -2.4027  -2.4005  -2.3445  -2.3408  -2.3270  -2.3266  -2.3150  -2.3135
    -2.2882  -2.2881  -2.2836  -2.2725  -2.2694  -2.2609  -2.2582  -2.2434
    -2.2422  -2.2165  -2.2155  -2.2058  -2.2054  -2.1961  -2.1952  -2.1777
    -2.1646  -2.1426  -2.0799  -2.0743  -2.0548  -2.0542  -2.0442  -2.0404
    -1.9949  -1.9904  -1.9753  -1.9578  -1.9468  -1.9444  -1.9276  -1.9102
    -1.9079  -1.8957  -1.8892  -1.8664  -1.8583  -1.8542  -1.8503  -1.8469
    -1.8409  -1.8384  -1.8259  -1.8135  -1.8125  -1.8029  -1.8026  -1.8020
    -1.8015  -1.7991  -1.7882  -1.7832  -1.7658  -1.7655  -1.7569  -1.7467
    -1.7449  -1.7423  -1.7403  -1.7397  -1.7330  -1.7150  -1.6965  -1.6822
    -1.6537  -1.6345  -1.6311  -1.5888  -1.5884  -1.5883  -1.5779  -1.5768
    -1.5643  -1.5623  -1.5545  -1.5503  -1.5463  -1.5410  -1.5254  -1.5245
    -1.4882  -1.4877  -1.4703  -1.4491  -1.4452  -1.4090  -1.4080  -1.3585
    -1.3572  -1.3372  -1.3138  -1.3111  -1.3109  -1.3044  -1.3030  -1.2855
    -1.2849  -1.2847  -1.2836  -1.2830  -1.2828  -1.2796  -1.2741  -1.2687
    -1.2512  -1.2499  -1.2184  -1.2174  -1.2167  -1.1957  -1.1952  -1.1910
    -1.1876  -1.1859  -1.1749  -1.1497  -1.1466  -1.1252  -1.1229  -1.1157
    -1.1028  -1.0918  -1.0916  -1.0626  -1.0615  -1.0547  -1.0524  -1.0155
    -1.0135  -1.0050  -1.0046  -1.0037  -1.0016  -0.9774  -0.9771  -0.9631
    -0.9561  -0.9556  -0.9445  -0.9437  -0.9411  -0.9404  -0.9311  -0.9196
    -0.9191  -0.9128  -0.9124  -0.9068  -0.9006  -0.8995  -0.8858  -0.8439
    -0.8421  -0.8416  -0.8386  -0.8366  -0.8357  -0.8050  -0.8041  -0.7932
    -0.7752  -0.7723  -0.7667  -0.7664  -0.7584  -0.7498  -0.7477  -0.7141
    -0.7136  -0.7021  -0.7018  -0.6819  -0.6815  -0.6663  -0.6425  -0.6342
    -0.6168  -0.6163  -0.5789  -0.5782  -0.5752  -0.5751  -0.5734  -0.5681
    -0.5677  -0.5666  -0.5627  -0.5607  -0.5279  -0.5277  -0.5273  -0.5269
    -0.5216  -0.5177  -0.5105  -0.5097  -0.4823  -0.2210  -0.2134  -0.1684
    -0.1616  -0.1364  -0.0758   0.0742   0.0756   0.1079   0.3909   0.3913
     0.7286   0.7343   0.7749   0.7751   0.8235   0.8273   0.9869   0.9874
     1.1124   1.1142   1.2280   1.7225   1.7669   1.7691   1.8063   1.8067
     1.9383   1.9478   1.9999   2.0014   2.1820   2.1824   2.4632   2.4903
     2.4981   2.5169   2.9439   2.9514   2.9733   2.9743   2.9900   2.9919
     3.0562   3.0563   3.1974   3.3306   3.3368   3.5196   3.5307   3.6298
     3.7006   3.7020   4.0008   4.0019   4.0538   4.0608   4.0610   4.1784
     4.2059   4.2121   4.2157   4.5034   4.5035   4.5362   4.5404   4.6543
     4.6588   4.7144   4.7208   4.9405   5.1654   5.6014   5.6064   5.6588
     5.6721   5.8041   5.8090   5.8118   5.8803   5.8850   5.9014   5.9020
     5.9407   6.0121   6.0269   6.1309   6.2822   6.2960   6.3026   6.3107
     6.3129   6.3133   6.3309   6.3592   6.3805   6.4616   6.4910   6.5856

          k =-0.2500 0.2500-0.0833 (167653 PWs)   bands (ev):

   -19.6936  -7.4944  -6.7302  -6.2001  -6.1994  -5.7616  -5.3604  -5.2597
    -5.2590  -5.0377  -5.0370  -4.9442  -4.9416  -4.8084  -4.7993  -4.6899
    -4.6015  -4.5972  -4.5770  -4.5758  -4.3976  -4.3941  -4.3932  -4.3670
    -4.3632  -4.3626  -4.3589  -4.3094  -4.3060  -4.3028  -4.3021  -4.2387
    -4.2112  -4.2101  -4.1668  -4.1502  -4.1491  -4.1185  -4.1136  -4.0988
    -4.0944  -4.0759  -4.0756  -4.0481  -4.0116  -4.0059  -4.0056  -4.0014
    -3.9997  -3.9724  -3.9594  -3.9396  -3.9149  -3.9102  -3.9080  -3.9057
    -3.9038  -3.9008  -3.8970  -3.8669  -3.8140  -3.8058  -3.8034  -3.7687
    -3.7470  -3.7394  -3.7359  -3.7248  -3.7135  -3.7128  -3.7015  -3.6514
    -3.6513  -3.6459  -3.6422  -3.5608  -3.5546  -3.5386  -3.5341  -3.5031
    -3.4948  -3.4878  -3.4624  -3.4616  -3.4179  -3.4166  -3.4157  -3.4147
    -3.3909  -3.3879  -3.3098  -3.3088  -3.3064  -3.2940  -3.2784  -3.2760
    -3.2630  -3.2625  -3.2561  -3.2553  -3.2127  -3.2119  -3.1907  -3.1869
    -3.1542  -3.1492  -3.1271  -3.1059  -3.1045  -3.0597  -3.0592  -3.0265
    -2.9995  -2.9986  -2.9982  -2.9956  -2.9938  -2.9931  -2.9648  -2.9573
    -2.9187  -2.9187  -2.8976  -2.8735  -2.8711  -2.8704  -2.8648  -2.8635
    -2.8598  -2.8596  -2.8248  -2.8235  -2.8235  -2.8183  -2.8160  -2.8131
    -2.7573  -2.7526  -2.7487  -2.7482  -2.7262  -2.7245  -2.7204  -2.6313
    -2.6215  -2.6208  -2.6121  -2.6109  -2.6060  -2.6040  -2.6037  -2.5955
    -2.5952  -2.5850  -2.5772  -2.5752  -2.5716  -2.5694  -2.5597  -2.5533
    -2.5521  -2.5304  -2.5201  -2.5188  -2.5037  -2.5035  -2.4868  -2.4847
    -2.4778  -2.4771  -2.4567  -2.4448  -2.4434  -2.4398  -2.4361  -2.4049
    -2.4027  -2.4009  -2.3446  -2.3408  -2.3268  -2.3261  -2.3148  -2.3119
    -2.2884  -2.2878  -2.2836  -2.2723  -2.2707  -2.2605  -2.2580  -2.2437
    -2.2418  -2.2164  -2.2154  -2.2059  -2.2051  -2.1959  -2.1955  -2.1811
    -2.1654  -2.1429  -2.0773  -2.0761  -2.0548  -2.0547  -2.0435  -2.0419
    -1.9940  -1.9899  -1.9763  -1.9577  -1.9459  -1.9444  -1.9269  -1.9085
    -1.9080  -1.8954  -1.8912  -1.8642  -1.8568  -1.8553  -1.8476  -1.8469
    -1.8408  -1.8380  -1.8216  -1.8156  -1.8119  -1.8027  -1.8025  -1.8018
    -1.8015  -1.8011  -1.7867  -1.7696  -1.7667  -1.7637  -1.7587  -1.7463
    -1.7445  -1.7417  -1.7403  -1.7398  -1.7351  -1.7267  -1.6996  -1.6961
    -1.6536  -1.6352  -1.6339  -1.5891  -1.5884  -1.5883  -1.5792  -1.5736
    -1.5660  -1.5597  -1.5577  -1.5469  -1.5449  -1.5392  -1.5259  -1.5148
    -1.4881  -1.4875  -1.4703  -1.4492  -1.4485  -1.4091  -1.4064  -1.3592
    -1.3565  -1.3364  -1.3140  -1.3112  -1.3108  -1.3065  -1.3035  -1.2857
    -1.2849  -1.2848  -1.2839  -1.2830  -1.2822  -1.2810  -1.2769  -1.2700
    -1.2515  -1.2497  -1.2187  -1.2175  -1.2136  -1.1955  -1.1943  -1.1912
    -1.1903  -1.1866  -1.1719  -1.1507  -1.1433  -1.1253  -1.1238  -1.1134
    -1.1029  -1.0917  -1.0902  -1.0629  -1.0616  -1.0562  -1.0522  -1.0168
    -1.0156  -1.0056  -1.0040  -1.0030  -1.0003  -0.9773  -0.9770  -0.9632
    -0.9558  -0.9555  -0.9454  -0.9429  -0.9414  -0.9363  -0.9309  -0.9210
    -0.9174  -0.9127  -0.9125  -0.9045  -0.9030  -0.8956  -0.8859  -0.8430
    -0.8422  -0.8419  -0.8401  -0.8381  -0.8355  -0.8086  -0.8000  -0.7932
    -0.7768  -0.7716  -0.7666  -0.7655  -0.7584  -0.7524  -0.7496  -0.7143
    -0.7118  -0.7020  -0.7017  -0.6821  -0.6815  -0.6663  -0.6423  -0.6342
    -0.6171  -0.6157  -0.5787  -0.5783  -0.5755  -0.5754  -0.5735  -0.5682
    -0.5678  -0.5670  -0.5629  -0.5607  -0.5281  -0.5279  -0.5275  -0.5267
    -0.5258  -0.5138  -0.5102  -0.5098  -0.4823  -0.2212  -0.2134  -0.1727
    -0.1589  -0.1362  -0.0765   0.0739   0.0756   0.1104   0.3883   0.3936
     0.7261   0.7378   0.7739   0.7766   0.8223   0.8288   0.9808   0.9883
     1.1125   1.1143   1.2290   1.7247   1.7678   1.7690   1.8059   1.8074
     1.9320   1.9520   1.9969   2.0041   2.1805   2.1840   2.4648   2.4882
     2.5043   2.5164   2.9399   2.9546   2.9729   2.9763   2.9894   2.9926
     3.0553   3.0572   3.1968   3.3308   3.3328   3.5202   3.5217   3.6310
     3.6995   3.7042   3.9989   4.0018   4.0552   4.0605   4.0658   4.1947
     4.2033   4.2053   4.2108   4.5021   4.5041   4.5370   4.5437   4.6558
     4.6569   4.7108   4.7292   4.9167   5.1847   5.5994   5.6041   5.6396
     5.6924   5.8074   5.8103   5.8337   5.8755   5.8871   5.8995   5.9019
     5.9700   6.0097   6.0256   6.0449   6.2909   6.2943   6.3053   6.3092
     6.3129   6.3169   6.3277   6.3327   6.4350   6.4434   6.4968   6.5698

          k = 0.2500-0.2500-0.0833 (167653 PWs)   bands (ev):

   -19.6936  -7.4944  -6.7302  -6.2001  -6.1994  -5.7616  -5.3604  -5.2597
    -5.2590  -5.0377  -5.0370  -4.9442  -4.9416  -4.8084  -4.7993  -4.6899
    -4.6015  -4.5972  -4.5770  -4.5758  -4.3976  -4.3941  -4.3932  -4.3670
    -4.3632  -4.3626  -4.3589  -4.3094  -4.3060  -4.3028  -4.3021  -4.2387
    -4.2112  -4.2101  -4.1668  -4.1502  -4.1491  -4.1185  -4.1136  -4.0988
    -4.0944  -4.0759  -4.0756  -4.0481  -4.0116  -4.0059  -4.0056  -4.0014
    -3.9997  -3.9724  -3.9594  -3.9396  -3.9149  -3.9102  -3.9080  -3.9057
    -3.9038  -3.9008  -3.8970  -3.8669  -3.8140  -3.8058  -3.8034  -3.7687
    -3.7470  -3.7394  -3.7359  -3.7248  -3.7135  -3.7128  -3.7015  -3.6514
    -3.6513  -3.6459  -3.6422  -3.5608  -3.5546  -3.5386  -3.5341  -3.5031
    -3.4948  -3.4878  -3.4624  -3.4616  -3.4179  -3.4166  -3.4157  -3.4147
    -3.3909  -3.3879  -3.3098  -3.3088  -3.3064  -3.2940  -3.2784  -3.2760
    -3.2630  -3.2625  -3.2561  -3.2553  -3.2127  -3.2119  -3.1907  -3.1869
    -3.1542  -3.1492  -3.1271  -3.1059  -3.1045  -3.0597  -3.0592  -3.0265
    -2.9995  -2.9986  -2.9982  -2.9956  -2.9938  -2.9931  -2.9648  -2.9573
    -2.9187  -2.9187  -2.8976  -2.8735  -2.8711  -2.8704  -2.8648  -2.8635
    -2.8598  -2.8596  -2.8248  -2.8235  -2.8235  -2.8183  -2.8160  -2.8131
    -2.7573  -2.7526  -2.7487  -2.7482  -2.7262  -2.7245  -2.7204  -2.6313
    -2.6215  -2.6208  -2.6121  -2.6109  -2.6060  -2.6040  -2.6037  -2.5955
    -2.5952  -2.5850  -2.5772  -2.5752  -2.5716  -2.5694  -2.5597  -2.5533
    -2.5521  -2.5304  -2.5201  -2.5188  -2.5037  -2.5035  -2.4868  -2.4847
    -2.4778  -2.4771  -2.4567  -2.4448  -2.4434  -2.4398  -2.4361  -2.4049
    -2.4027  -2.4009  -2.3446  -2.3408  -2.3268  -2.3261  -2.3148  -2.3119
    -2.2884  -2.2878  -2.2836  -2.2723  -2.2707  -2.2605  -2.2580  -2.2437
    -2.2418  -2.2164  -2.2154  -2.2059  -2.2051  -2.1959  -2.1955  -2.1811
    -2.1654  -2.1429  -2.0773  -2.0761  -2.0548  -2.0547  -2.0435  -2.0419
    -1.9940  -1.9899  -1.9763  -1.9577  -1.9459  -1.9444  -1.9269  -1.9085
    -1.9080  -1.8954  -1.8912  -1.8642  -1.8568  -1.8553  -1.8476  -1.8469
    -1.8408  -1.8380  -1.8216  -1.8156  -1.8119  -1.8027  -1.8025  -1.8018
    -1.8015  -1.8011  -1.7867  -1.7696  -1.7667  -1.7637  -1.7587  -1.7463
    -1.7445  -1.7417  -1.7403  -1.7398  -1.7351  -1.7267  -1.6996  -1.6961
    -1.6536  -1.6352  -1.6339  -1.5891  -1.5884  -1.5883  -1.5792  -1.5736
    -1.5660  -1.5597  -1.5577  -1.5469  -1.5449  -1.5392  -1.5259  -1.5148
    -1.4881  -1.4875  -1.4703  -1.4492  -1.4485  -1.4091  -1.4064  -1.3592
    -1.3565  -1.3364  -1.3140  -1.3112  -1.3108  -1.3065  -1.3035  -1.2857
    -1.2849  -1.2848  -1.2839  -1.2830  -1.2822  -1.2810  -1.2769  -1.2700
    -1.2515  -1.2497  -1.2187  -1.2175  -1.2136  -1.1955  -1.1943  -1.1912
    -1.1903  -1.1866  -1.1719  -1.1507  -1.1433  -1.1253  -1.1238  -1.1134
    -1.1029  -1.0917  -1.0902  -1.0629  -1.0616  -1.0562  -1.0522  -1.0168
    -1.0156  -1.0056  -1.0040  -1.0030  -1.0003  -0.9773  -0.9770  -0.9632
    -0.9558  -0.9555  -0.9454  -0.9429  -0.9414  -0.9363  -0.9309  -0.9210
    -0.9174  -0.9127  -0.9125  -0.9045  -0.9030  -0.8956  -0.8859  -0.8430
    -0.8422  -0.8419  -0.8401  -0.8381  -0.8355  -0.8086  -0.8000  -0.7932
    -0.7768  -0.7716  -0.7666  -0.7655  -0.7584  -0.7524  -0.7496  -0.7143
    -0.7118  -0.7020  -0.7017  -0.6821  -0.6815  -0.6663  -0.6423  -0.6342
    -0.6171  -0.6157  -0.5787  -0.5783  -0.5755  -0.5754  -0.5735  -0.5682
    -0.5678  -0.5670  -0.5629  -0.5607  -0.5281  -0.5279  -0.5275  -0.5267
    -0.5258  -0.5138  -0.5102  -0.5098  -0.4823  -0.2212  -0.2134  -0.1727
    -0.1589  -0.1362  -0.0765   0.0739   0.0756   0.1104   0.3883   0.3936
     0.7261   0.7378   0.7739   0.7766   0.8223   0.8288   0.9808   0.9883
     1.1125   1.1143   1.2290   1.7247   1.7678   1.7690   1.8059   1.8074
     1.9320   1.9520   1.9969   2.0041   2.1805   2.1840   2.4648   2.4882
     2.5043   2.5164   2.9399   2.9546   2.9729   2.9763   2.9894   2.9926
     3.0553   3.0572   3.1968   3.3308   3.3328   3.5202   3.5217   3.6310
     3.6995   3.7042   3.9989   4.0018   4.0552   4.0605   4.0658   4.1947
     4.2033   4.2053   4.2108   4.5021   4.5041   4.5370   4.5437   4.6558
     4.6569   4.7108   4.7292   4.9167   5.1847   5.5994   5.6041   5.6396
     5.6924   5.8074   5.8103   5.8336   5.8755   5.8871   5.8995   5.9019
     5.9702   6.0097   6.0257   6.0448   6.2909   6.2943   6.3054   6.3093
     6.3129   6.3169   6.3276   6.3328   6.4346   6.4437   6.4967   6.5698

          k =-0.2500 0.2500 0.2500 (167588 PWs)   bands (ev):

   -19.6936  -7.4944  -6.7302  -6.2001  -6.1994  -5.7616  -5.3604  -5.2597
    -5.2590  -5.0377  -5.0370  -4.9442  -4.9416  -4.8084  -4.7993  -4.6899
    -4.6015  -4.5972  -4.5770  -4.5758  -4.3976  -4.3941  -4.3932  -4.3670
    -4.3632  -4.3626  -4.3589  -4.3094  -4.3060  -4.3028  -4.3021  -4.2387
    -4.2112  -4.2101  -4.1668  -4.1502  -4.1491  -4.1185  -4.1136  -4.0988
    -4.0944  -4.0759  -4.0756  -4.0481  -4.0116  -4.0059  -4.0056  -4.0014
    -3.9997  -3.9724  -3.9593  -3.9396  -3.9149  -3.9102  -3.9080  -3.9057
    -3.9038  -3.9008  -3.8970  -3.8669  -3.8140  -3.8058  -3.8034  -3.7687
    -3.7470  -3.7394  -3.7358  -3.7248  -3.7135  -3.7128  -3.7015  -3.6514
    -3.6513  -3.6459  -3.6422  -3.5608  -3.5546  -3.5386  -3.5341  -3.5031
    -3.4948  -3.4878  -3.4624  -3.4616  -3.4179  -3.4166  -3.4157  -3.4147
    -3.3909  -3.3879  -3.3098  -3.3088  -3.3064  -3.2940  -3.2784  -3.2760
    -3.2630  -3.2625  -3.2561  -3.2553  -3.2127  -3.2119  -3.1907  -3.1869
    -3.1542  -3.1492  -3.1271  -3.1059  -3.1045  -3.0597  -3.0591  -3.0265
    -2.9995  -2.9986  -2.9982  -2.9956  -2.9938  -2.9931  -2.9648  -2.9573
    -2.9187  -2.9187  -2.8976  -2.8735  -2.8711  -2.8704  -2.8648  -2.8635
    -2.8598  -2.8596  -2.8248  -2.8235  -2.8235  -2.8183  -2.8160  -2.8131
    -2.7573  -2.7526  -2.7487  -2.7482  -2.7262  -2.7245  -2.7204  -2.6313
    -2.6215  -2.6208  -2.6121  -2.6109  -2.6060  -2.6040  -2.6037  -2.5955
    -2.5952  -2.5850  -2.5772  -2.5752  -2.5715  -2.5694  -2.5597  -2.5533
    -2.5521  -2.5304  -2.5201  -2.5188  -2.5037  -2.5035  -2.4868  -2.4847
    -2.4778  -2.4771  -2.4567  -2.4448  -2.4434  -2.4398  -2.4361  -2.4049
    -2.4027  -2.4009  -2.3446  -2.3408  -2.3268  -2.3261  -2.3148  -2.3119
    -2.2884  -2.2878  -2.2836  -2.2723  -2.2707  -2.2605  -2.2580  -2.2437
    -2.2418  -2.2164  -2.2154  -2.2059  -2.2051  -2.1960  -2.1955  -2.1811
    -2.1654  -2.1429  -2.0773  -2.0761  -2.0548  -2.0547  -2.0435  -2.0419
    -1.9940  -1.9899  -1.9763  -1.9577  -1.9459  -1.9444  -1.9269  -1.9085
    -1.9080  -1.8954  -1.8912  -1.8642  -1.8568  -1.8553  -1.8476  -1.8469
    -1.8408  -1.8380  -1.8216  -1.8156  -1.8119  -1.8027  -1.8025  -1.8018
    -1.8015  -1.8011  -1.7867  -1.7696  -1.7667  -1.7637  -1.7587  -1.7462
    -1.7445  -1.7417  -1.7403  -1.7398  -1.7351  -1.7267  -1.6996  -1.6961
    -1.6536  -1.6352  -1.6339  -1.5891  -1.5884  -1.5883  -1.5792  -1.5736
    -1.5660  -1.5597  -1.5577  -1.5469  -1.5449  -1.5392  -1.5259  -1.5148
    -1.4881  -1.4875  -1.4703  -1.4492  -1.4485  -1.4091  -1.4064  -1.3592
    -1.3565  -1.3364  -1.3140  -1.3112  -1.3108  -1.3065  -1.3035  -1.2857
    -1.2849  -1.2848  -1.2839  -1.2831  -1.2822  -1.2810  -1.2769  -1.2700
    -1.2515  -1.2497  -1.2187  -1.2175  -1.2136  -1.1955  -1.1943  -1.1911
    -1.1903  -1.1866  -1.1719  -1.1507  -1.1433  -1.1253  -1.1238  -1.1134
    -1.1029  -1.0917  -1.0902  -1.0629  -1.0616  -1.0562  -1.0522  -1.0168
    -1.0155  -1.0056  -1.0040  -1.0030  -1.0003  -0.9773  -0.9770  -0.9632
    -0.9558  -0.9555  -0.9454  -0.9429  -0.9414  -0.9363  -0.9309  -0.9210
    -0.9174  -0.9127  -0.9125  -0.9045  -0.9030  -0.8956  -0.8859  -0.8430
    -0.8422  -0.8419  -0.8401  -0.8381  -0.8355  -0.8086  -0.8000  -0.7932
    -0.7768  -0.7716  -0.7666  -0.7655  -0.7584  -0.7524  -0.7496  -0.7143
    -0.7118  -0.7020  -0.7017  -0.6821  -0.6814  -0.6663  -0.6423  -0.6342
    -0.6171  -0.6157  -0.5787  -0.5783  -0.5755  -0.5754  -0.5735  -0.5682
    -0.5678  -0.5670  -0.5629  -0.5606  -0.5281  -0.5279  -0.5275  -0.5267
    -0.5258  -0.5138  -0.5102  -0.5098  -0.4823  -0.2212  -0.2134  -0.1726
    -0.1589  -0.1362  -0.0765   0.0739   0.0756   0.1104   0.3884   0.3936
     0.7261   0.7378   0.7739   0.7766   0.8223   0.8289   0.9808   0.9883
     1.1125   1.1143   1.2290   1.7247   1.7678   1.7690   1.8059   1.8074
     1.9320   1.9520   1.9969   2.0041   2.1805   2.1840   2.4648   2.4882
     2.5043   2.5164   2.9399   2.9545   2.9729   2.9763   2.9894   2.9926
     3.0553   3.0572   3.1968   3.3308   3.3328   3.5202   3.5217   3.6310
     3.6995   3.7042   3.9989   4.0018   4.0552   4.0605   4.0658   4.1948
     4.2034   4.2053   4.2108   4.5020   4.5041   4.5370   4.5437   4.6558
     4.6569   4.7108   4.7292   4.9166   5.1818   5.5992   5.6041   5.6398
     5.6850   5.8052   5.8076   5.8271   5.8752   5.8874   5.8995   5.9019
     5.9912   5.9983   6.0139   6.1137   6.2753   6.2943   6.3030   6.3055
     6.3129   6.3172   6.3304   6.3882   6.4172   6.5049   6.5231   6.5741

     the Fermi energy is     1.0569 ev

!    total energy              =   -7379.98072212 Ry
     Harris-Foulkes estimate   =   -7379.98072212 Ry
     estimated scf accuracy    <          3.0E-09 Ry

     The total energy is the sum of the following terms:

     one-electron contribution =  -48799.32450373 Ry
     hartree contribution      =   24952.14085990 Ry
     xc contribution           =   -3556.25020331 Ry
     ewald contribution        =   20023.45210856 Ry
     smearing contrib. (-TS)   =       0.00101647 Ry

     convergence has been achieved in  26 iterations

     Writing output data file 9841489.save

     init_run     :    121.59s CPU    127.16s WALL (       1 calls)
     electrons    :   7280.77s CPU   7588.94s WALL (       1 calls)

     Called by init_run:
     wfcinit      :     91.02s CPU     96.23s WALL (       1 calls)
     potinit      :      3.48s CPU      3.56s WALL (       1 calls)

     Called by electrons:
     c_bands      :   5986.39s CPU   6234.78s WALL (      27 calls)
     sum_band     :    901.08s CPU    955.43s WALL (      27 calls)
     v_of_rho     :     19.29s CPU     20.55s WALL (      27 calls)
     newd         :    381.41s CPU    385.05s WALL (      27 calls)
     mix_rho      :      3.61s CPU      3.91s WALL (      27 calls)

     Called by c_bands:
     init_us_2    :      7.71s CPU      7.98s WALL (     330 calls)
     cegterg      :   5878.78s CPU   6126.26s WALL (     162 calls)

     Called by *egterg:
     h_psi        :   2361.09s CPU   2581.75s WALL (     783 calls)
     s_psi        :    334.05s CPU    335.55s WALL (     783 calls)
     g_psi        :      4.31s CPU      4.32s WALL (     615 calls)
     cdiaghg      :   1404.38s CPU   1408.53s WALL (     771 calls)

     Called by h_psi:
     add_vuspsi   :    334.19s CPU    335.69s WALL (     783 calls)

     General routines
     calbec       :    652.65s CPU    654.71s WALL (     945 calls)
     fft          :    157.29s CPU    159.67s WALL (     432 calls)
     ffts         :      2.44s CPU      2.63s WALL (      54 calls)
     fftw         :   1781.31s CPU   2033.22s WALL (  434002 calls)
     interpolate  :      5.84s CPU      6.43s WALL (      54 calls)
     davcio       :      0.00s CPU      0.10s WALL (       6 calls)

     Parallel routines
     fft_scatter  :   1419.66s CPU   1628.47s WALL (  434488 calls)

     PWSCF        :     2h 3m CPU        2h 8m WALL


   This run was terminated on:  15:30: 9   7Aug2015            

=------------------------------------------------------------------------------=
   JOB DONE.
=------------------------------------------------------------------------------=
