Setting SGE environment for SCC

     Program PWSCF v.5.1.2 starts on 11Aug2015 at 14:34:30 

     This program is part of the open-source Quantum ESPRESSO suite
     for quantum simulation of materials; please cite
         "P. Giannozzi et al., J. Phys.:Condens. Matter 21 395502 (2009);
          URL http://www.quantum-espresso.org", 
     in publications or presentations arising from this work. More details at
     http://www.quantum-espresso.org/quote

     Parallel version (MPI), running on    32 processors
     R & G space division:  proc/nbgrp/npool/nimage =      32
     Reading input from hollow.O1.Au5859.d.2.5.phi.0.psi.90.in
Warning: card &IONS ignored
Warning: card / ignored
Warning: card &CELL ignored
Warning: card / ignored

     Current dimensions of program PWSCF are:
     Max number of different atomic species (ntypx) = 10
     Max number of k-points (npk) =  40000
     Max angular momentum in pseudopotentials (lmaxx) =  3

     Subspace diagonalization in iterative solution of the eigenvalue problem:
     a serial algorithm will be used


     Parallelization info
     --------------------
     sticks:   dense  smooth     PW     G-vecs:    dense   smooth      PW
     Min         578     289     74               118518    41891    5486
     Max         579     290     75               118533    41932    5497
     Sum       18505    9265   2385              3792731  1341081  175711


     Title: 
     hollow.O1.Au5859.d.2.5.phi.0.psi.90                                        


     bravais-lattice index     =            8
     lattice parameter (alat)  =      24.1233  a.u.
     unit-cell volume          =   28076.2361 (a.u.)^3
     number of atoms/cell      =           75
     number of atomic types    =            3
     number of electrons       =       800.00
     number of Kohn-Sham states=          480
     kinetic-energy cutoff     =      50.0000  Ry
     charge density cutoff     =     400.0000  Ry
     convergence threshold     =      1.0E-08
     mixing beta               =       0.7000
     number of iterations used =            8  plain     mixing
     Exchange-correlation      =  SLA  PW   PBE  PBE ( 1  4  3  4 0 0)

     celldm(1)=  24.123277  celldm(2)=   1.000000  celldm(3)=   2.000000
     celldm(4)=   0.000000  celldm(5)=   0.000000  celldm(6)=   0.000000

     crystal axes: (cart. coord. in units of alat)
               a(1) = (   1.000000   0.000000   0.000000 )  
               a(2) = (   0.000000   1.000000   0.000000 )  
               a(3) = (   0.000000   0.000000   2.000000 )  

     reciprocal axes: (cart. coord. in units 2 pi/alat)
               b(1) = (  1.000000  0.000000  0.000000 )  
               b(2) = (  0.000000  1.000000  0.000000 )  
               b(3) = (  0.000000  0.000000  0.500000 )  


     PseudoPot. # 1 for Au read from file:
     /home/scc/andrejb/qe/pseudo/Au.pbe-nd-van.UPF
     MD5 check sum: 458681b50f36d87ef23c61b04bba420a
     Pseudo is Ultrasoft + core correction, Zval = 11.0
     Generated by new atomic code, or converted to UPF format
     Using radial grid of  985 points,  3 beta functions with: 
                l(1) =   1
                l(2) =   2
                l(3) =   2
     Q(r) pseudized with  8 coefficients,  rinner =    1.100   1.100   1.100
                                                       1.100   1.100

     PseudoPot. # 2 for H  read from file:
     /home/scc/andrejb/qe/pseudo/H.pbe-van_ak.UPF
     MD5 check sum: 403db7282739603aa925980fa9b8608d
     Pseudo is Ultrasoft, Zval =  1.0
     Generated by new atomic code, or converted to UPF format
     Using radial grid of  615 points,  1 beta functions with: 
                l(1) =   0
     Q(r) pseudized with  8 coefficients,  rinner =    0.800

     PseudoPot. # 3 for O  read from file:
     /home/scc/andrejb/qe/pseudo/O.pbe-van_ak.UPF
     MD5 check sum: 4b8c549914a63cae506c6ff22b5af4fe
     Pseudo is Ultrasoft, Zval =  6.0
     Generated by new atomic code, or converted to UPF format
     Using radial grid of  737 points,  4 beta functions with: 
                l(1) =   0
                l(2) =   0
                l(3) =   1
                l(4) =   1
     Q(r) pseudized with  8 coefficients,  rinner =    0.800   0.800   0.800


     atomic species   valence    mass     pseudopotential
        Au            11.00   196.96657     Au( 1.00)
        H              1.00     1.01000     H ( 1.00)
        O              6.00    16.00000     O ( 1.00)

     No symmetry found



   Cartesian axes

     site n.     atom                  positions (alat units)
         1           O   tau(   1) = (   0.1666051   0.1666105   0.6951546  )
         2           H   tau(   2) = (   0.1195275   0.1211166   0.6559831  )
         3           H   tau(   3) = (   0.2122554   0.1187528   0.7331562  )
         4           Au  tau(   4) = (   0.0000000   0.0000000   0.0000000  )
         5           Au  tau(   5) = (   0.3332217   0.0000000   0.0000000  )
         6           Au  tau(   6) = (   0.6664434   0.0000000   0.0000000  )
         7           Au  tau(   7) = (   0.1666109   0.1666109   0.0000000  )
         8           Au  tau(   8) = (   0.4998326   0.1666109   0.0000000  )
         9           Au  tau(   9) = (   0.8330542   0.1666109   0.0000000  )
        10           Au  tau(  10) = (   0.0000000   0.3332217   0.0000000  )
        11           Au  tau(  11) = (   0.3332217   0.3332217   0.0000000  )
        12           Au  tau(  12) = (   0.6664434   0.3332217   0.0000000  )
        13           Au  tau(  13) = (   0.1666109   0.4998326   0.0000000  )
        14           Au  tau(  14) = (   0.4998326   0.4998326   0.0000000  )
        15           Au  tau(  15) = (   0.8330542   0.4998326   0.0000000  )
        16           Au  tau(  16) = (   0.0000000   0.6664434   0.0000000  )
        17           Au  tau(  17) = (   0.3332217   0.6664434   0.0000000  )
        18           Au  tau(  18) = (   0.6664434   0.6664434   0.0000000  )
        19           Au  tau(  19) = (   0.1666109   0.8330542   0.0000000  )
        20           Au  tau(  20) = (   0.4998326   0.8330542   0.0000000  )
        21           Au  tau(  21) = (   0.8330542   0.8330542   0.0000000  )
        22           Au  tau(  22) = (   0.1666109   0.0000000   0.1666109  )
        23           Au  tau(  23) = (   0.4998326   0.0000000   0.1666109  )
        24           Au  tau(  24) = (   0.8330542   0.0000000   0.1666109  )
        25           Au  tau(  25) = (   0.0000000   0.1666109   0.1666109  )
        26           Au  tau(  26) = (   0.3332217   0.1666109   0.1666109  )
        27           Au  tau(  27) = (   0.6664434   0.1666109   0.1666109  )
        28           Au  tau(  28) = (   0.1666109   0.3332217   0.1666109  )
        29           Au  tau(  29) = (   0.4998326   0.3332217   0.1666109  )
        30           Au  tau(  30) = (   0.8330542   0.3332217   0.1666109  )
        31           Au  tau(  31) = (   0.0000000   0.4998326   0.1666109  )
        32           Au  tau(  32) = (   0.3332217   0.4998326   0.1666109  )
        33           Au  tau(  33) = (   0.6664434   0.4998326   0.1666109  )
        34           Au  tau(  34) = (   0.1666109   0.6664434   0.1666109  )
        35           Au  tau(  35) = (   0.4998326   0.6664434   0.1666109  )
        36           Au  tau(  36) = (   0.8330542   0.6664434   0.1666109  )
        37           Au  tau(  37) = (   0.0000000   0.8330542   0.1666109  )
        38           Au  tau(  38) = (   0.3332217   0.8330542   0.1666109  )
        39           Au  tau(  39) = (   0.6664434   0.8330542   0.1666109  )
        40           Au  tau(  40) = (  -0.0000182  -0.0000182   0.3335478  )
        41           Au  tau(  41) = (   0.3332215  -0.0000181   0.3335473  )
        42           Au  tau(  42) = (   0.6664447  -0.0000183   0.3335481  )
        43           Au  tau(  43) = (  -0.0000181   0.3332215   0.3335473  )
        44           Au  tau(  44) = (   0.3332215   0.3332215   0.3335468  )
        45           Au  tau(  45) = (   0.6664445   0.3332215   0.3335477  )
        46           Au  tau(  46) = (  -0.0000183   0.6664447   0.3335481  )
        47           Au  tau(  47) = (   0.3332215   0.6664445   0.3335477  )
        48           Au  tau(  48) = (   0.6664446   0.6664446   0.3335486  )
        49           Au  tau(  49) = (   0.1666097   0.1666097   0.3335483  )
        50           Au  tau(  50) = (   0.4998320   0.1666098   0.3335477  )
        51           Au  tau(  51) = (   0.8330732   0.1666096   0.3335480  )
        52           Au  tau(  52) = (   0.1666098   0.4998320   0.3335477  )
        53           Au  tau(  53) = (   0.4998322   0.4998322   0.3335470  )
        54           Au  tau(  54) = (   0.8330731   0.4998322   0.3335474  )
        55           Au  tau(  55) = (   0.1666096   0.8330732   0.3335480  )
        56           Au  tau(  56) = (   0.4998322   0.8330731   0.3335474  )
        57           Au  tau(  57) = (   0.8330731   0.8330731   0.3335478  )
        58           Au  tau(  58) = (   0.1666104  -0.0000111   0.4993095  )
        59           Au  tau(  59) = (   0.4998323  -0.0000112   0.4993099  )
        60           Au  tau(  60) = (   0.8330660  -0.0000111   0.4993009  )
        61           Au  tau(  61) = (  -0.0000111   0.1666104   0.4993095  )
        62           Au  tau(  62) = (   0.3332213   0.1666106   0.4993185  )
        63           Au  tau(  63) = (   0.6664437   0.1666106   0.4993187  )
        64           Au  tau(  64) = (   0.1666106   0.3332213   0.4993185  )
        65           Au  tau(  65) = (   0.4998324   0.3332216   0.4993185  )
        66           Au  tau(  66) = (   0.8330658   0.3332215   0.4993102  )
        67           Au  tau(  67) = (  -0.0000112   0.4998323   0.4993099  )
        68           Au  tau(  68) = (   0.3332216   0.4998324   0.4993185  )
        69           Au  tau(  69) = (   0.6664437   0.4998325   0.4993187  )
        70           Au  tau(  70) = (   0.1666106   0.6664437   0.4993187  )
        71           Au  tau(  71) = (   0.4998325   0.6664437   0.4993187  )
        72           Au  tau(  72) = (   0.8330658   0.6664438   0.4993102  )
        73           Au  tau(  73) = (  -0.0000111   0.8330660   0.4993009  )
        74           Au  tau(  74) = (   0.3332215   0.8330658   0.4993102  )
        75           Au  tau(  75) = (   0.6664438   0.8330658   0.4993102  )

     number of k points=     6  Marzari-Vanderbilt smearing, width (Ry)=  0.0200
                       cart. coord. in units 2pi/alat
        k(    1) = (   0.2500000   0.2500000   0.0833333), wk =   0.3333333
        k(    2) = (   0.2500000   0.2500000  -0.2500000), wk =   0.3333333
        k(    3) = (  -0.2500000  -0.2500000   0.0833333), wk =   0.3333333
        k(    4) = (  -0.2500000   0.2500000  -0.0833333), wk =   0.3333333
        k(    5) = (   0.2500000  -0.2500000  -0.0833333), wk =   0.3333333
        k(    6) = (  -0.2500000   0.2500000   0.2500000), wk =   0.3333333

     Dense  grid:  3792731 G-vectors     FFT dimensions: ( 160, 160, 320)

     Smooth grid:  1341081 G-vectors     FFT dimensions: ( 120, 120, 225)

     Largest allocated arrays     est. size (Mb)     dimensions
        Kohn-Sham Wavefunctions        38.58 Mb     (    5267,  480)
        NL pseudopotentials            76.03 Mb     (    5267,  946)
        Each V/rho on FFT grid          3.91 Mb     (  256000)
        Each G-vector array             0.90 Mb     (  118520)
        G-vector shells                 0.08 Mb     (   10286)
     Largest temporary arrays     est. size (Mb)     dimensions
        Auxiliary wavefunctions       154.31 Mb     (    5267, 1920)
        Each subspace H/S matrix       56.25 Mb     (    1920, 1920)
        Each <psi_i|beta_j> matrix      6.93 Mb     (     946,  480)
        Arrays for rho mixing          31.25 Mb     (  256000,    8)

     Initial potential from superposition of free atoms
     Check: negative starting charge=   -1.945195

     starting charge  799.16392, renormalised to  800.00000

     negative rho (up, down):  1.947E+00 0.000E+00
     Starting wfc are  654 randomized atomic wfcs

     total cpu time spent up to now is      116.7 secs

     Self-consistent Calculation

     iteration #  1     ecut=    50.00 Ry     beta=0.70
     Davidson diagonalization with overlap
     ethr =  1.00E-02,  avg # of iterations =  3.0

     Threshold (ethr) on eigenvalues was too large:
     Diagonalizing with lowered threshold

     Davidson diagonalization with overlap
     ethr =  4.89E-04,  avg # of iterations =  2.0

     negative rho (up, down):  1.932E+00 0.000E+00

     total cpu time spent up to now is      518.2 secs

     total energy              =   -7377.44890522 Ry
     Harris-Foulkes estimate   =   -7380.93719255 Ry
     estimated scf accuracy    <       4.43400039 Ry

     iteration #  2     ecut=    50.00 Ry     beta=0.70
     Davidson diagonalization with overlap
     ethr =  5.54E-04,  avg # of iterations = 11.3

     negative rho (up, down):  1.930E+00 0.000E+00

     total cpu time spent up to now is     1226.3 secs

     total energy              =   -7369.02281906 Ry
     Harris-Foulkes estimate   =   -7387.82379851 Ry
     estimated scf accuracy    <      96.49051346 Ry

     iteration #  3     ecut=    50.00 Ry     beta=0.70
     Davidson diagonalization with overlap
     ethr =  5.54E-04,  avg # of iterations =  6.0

     negative rho (up, down):  1.947E+00 0.000E+00

     total cpu time spent up to now is     1651.4 secs

     total energy              =   -7378.81754873 Ry
     Harris-Foulkes estimate   =   -7380.68263632 Ry
     estimated scf accuracy    <       7.02674727 Ry

     iteration #  4     ecut=    50.00 Ry     beta=0.70
     Davidson diagonalization with overlap
     ethr =  5.54E-04,  avg # of iterations =  5.3

     negative rho (up, down):  1.951E+00 0.000E+00

     total cpu time spent up to now is     1889.6 secs

     total energy              =   -7379.39077671 Ry
     Harris-Foulkes estimate   =   -7380.44108037 Ry
     estimated scf accuracy    <       6.04235454 Ry

     iteration #  5     ecut=    50.00 Ry     beta=0.70
     Davidson diagonalization with overlap
     ethr =  5.54E-04,  avg # of iterations =  6.0

     negative rho (up, down):  1.960E+00 0.000E+00

     total cpu time spent up to now is     2128.9 secs

     total energy              =   -7379.74608445 Ry
     Harris-Foulkes estimate   =   -7380.27521138 Ry
     estimated scf accuracy    <       3.87974483 Ry

     iteration #  6     ecut=    50.00 Ry     beta=0.70
     Davidson diagonalization with overlap
     ethr =  4.85E-04,  avg # of iterations =  2.8

     negative rho (up, down):  1.963E+00 0.000E+00

     total cpu time spent up to now is     2321.7 secs

     total energy              =   -7379.94765701 Ry
     Harris-Foulkes estimate   =   -7380.02331884 Ry
     estimated scf accuracy    <       0.28390885 Ry

     iteration #  7     ecut=    50.00 Ry     beta=0.70
     Davidson diagonalization with overlap
     ethr =  3.55E-05,  avg # of iterations =  9.2

     negative rho (up, down):  1.966E+00 0.000E+00

     total cpu time spent up to now is     2624.4 secs

     total energy              =   -7379.96524311 Ry
     Harris-Foulkes estimate   =   -7380.00974750 Ry
     estimated scf accuracy    <       0.22924581 Ry

     iteration #  8     ecut=    50.00 Ry     beta=0.70
     Davidson diagonalization with overlap
     ethr =  2.87E-05,  avg # of iterations =  6.5

     negative rho (up, down):  1.968E+00 0.000E+00

     total cpu time spent up to now is     2869.1 secs

     total energy              =   -7379.97269716 Ry
     Harris-Foulkes estimate   =   -7379.99459077 Ry
     estimated scf accuracy    <       0.08840035 Ry

     iteration #  9     ecut=    50.00 Ry     beta=0.70
     Davidson diagonalization with overlap
     ethr =  1.11E-05,  avg # of iterations =  8.7

     negative rho (up, down):  1.969E+00 0.000E+00

     total cpu time spent up to now is     3147.2 secs

     total energy              =   -7379.97601486 Ry
     Harris-Foulkes estimate   =   -7379.98542670 Ry
     estimated scf accuracy    <       0.02878077 Ry

     iteration # 10     ecut=    50.00 Ry     beta=0.70
     Davidson diagonalization with overlap
     ethr =  3.60E-06,  avg # of iterations =  8.7

     negative rho (up, down):  1.969E+00 0.000E+00

     total cpu time spent up to now is     3434.1 secs

     total energy              =   -7379.97854962 Ry
     Harris-Foulkes estimate   =   -7379.98127735 Ry
     estimated scf accuracy    <       0.00692711 Ry

     iteration # 11     ecut=    50.00 Ry     beta=0.70
     Davidson diagonalization with overlap
     ethr =  8.66E-07,  avg # of iterations =  3.0

     negative rho (up, down):  1.970E+00 0.000E+00

     total cpu time spent up to now is     3651.2 secs

     total energy              =   -7379.97914737 Ry
     Harris-Foulkes estimate   =   -7379.98064594 Ry
     estimated scf accuracy    <       0.00448730 Ry

     iteration # 12     ecut=    50.00 Ry     beta=0.70
     Davidson diagonalization with overlap
     ethr =  5.61E-07,  avg # of iterations =  2.3

     negative rho (up, down):  1.970E+00 0.000E+00

     total cpu time spent up to now is     3847.0 secs

     total energy              =   -7379.97928337 Ry
     Harris-Foulkes estimate   =   -7379.98058767 Ry
     estimated scf accuracy    <       0.00651519 Ry

     iteration # 13     ecut=    50.00 Ry     beta=0.70
     Davidson diagonalization with overlap
     ethr =  5.61E-07,  avg # of iterations =  3.0

     negative rho (up, down):  1.970E+00 0.000E+00

     total cpu time spent up to now is     4042.0 secs

     total energy              =   -7379.97956254 Ry
     Harris-Foulkes estimate   =   -7379.98044868 Ry
     estimated scf accuracy    <       0.00422604 Ry

     iteration # 14     ecut=    50.00 Ry     beta=0.70
     Davidson diagonalization with overlap
     ethr =  5.28E-07,  avg # of iterations =  2.0

     negative rho (up, down):  1.970E+00 0.000E+00

     total cpu time spent up to now is     4225.8 secs

     total energy              =   -7379.97997070 Ry
     Harris-Foulkes estimate   =   -7379.98001419 Ry
     estimated scf accuracy    <       0.00012161 Ry

     iteration # 15     ecut=    50.00 Ry     beta=0.70
     Davidson diagonalization with overlap
     ethr =  1.52E-08,  avg # of iterations =  3.0

     negative rho (up, down):  1.970E+00 0.000E+00

     total cpu time spent up to now is     4480.8 secs

     total energy              =   -7379.97996106 Ry
     Harris-Foulkes estimate   =   -7379.98004079 Ry
     estimated scf accuracy    <       0.00049648 Ry

     iteration # 16     ecut=    50.00 Ry     beta=0.70
     Davidson diagonalization with overlap
     ethr =  1.52E-08,  avg # of iterations =  2.0

     negative rho (up, down):  1.970E+00 0.000E+00

     total cpu time spent up to now is     4681.9 secs

     total energy              =   -7379.97998685 Ry
     Harris-Foulkes estimate   =   -7379.98003390 Ry
     estimated scf accuracy    <       0.00029088 Ry

     iteration # 17     ecut=    50.00 Ry     beta=0.70
     Davidson diagonalization with overlap
     ethr =  1.52E-08,  avg # of iterations =  2.0

     negative rho (up, down):  1.970E+00 0.000E+00

     total cpu time spent up to now is     4888.4 secs

     total energy              =   -7379.98000747 Ry
     Harris-Foulkes estimate   =   -7379.98001234 Ry
     estimated scf accuracy    <       0.00001704 Ry

     iteration # 18     ecut=    50.00 Ry     beta=0.70
     Davidson diagonalization with overlap
     ethr =  2.13E-09,  avg # of iterations =  2.0

     negative rho (up, down):  1.970E+00 0.000E+00

     total cpu time spent up to now is     5078.6 secs

     total energy              =   -7379.98000947 Ry
     Harris-Foulkes estimate   =   -7379.98001139 Ry
     estimated scf accuracy    <       0.00000679 Ry

     iteration # 19     ecut=    50.00 Ry     beta=0.70
     Davidson diagonalization with overlap
     ethr =  8.49E-10,  avg # of iterations =  2.0

     negative rho (up, down):  1.970E+00 0.000E+00

     total cpu time spent up to now is     5269.5 secs

     total energy              =   -7379.98001010 Ry
     Harris-Foulkes estimate   =   -7379.98001085 Ry
     estimated scf accuracy    <       0.00000267 Ry

     iteration # 20     ecut=    50.00 Ry     beta=0.70
     Davidson diagonalization with overlap
     ethr =  3.34E-10,  avg # of iterations =  3.0

     negative rho (up, down):  1.970E+00 0.000E+00

     total cpu time spent up to now is     5465.4 secs

     total energy              =   -7379.98001024 Ry
     Harris-Foulkes estimate   =   -7379.98001084 Ry
     estimated scf accuracy    <       0.00000269 Ry

     iteration # 21     ecut=    50.00 Ry     beta=0.70
     Davidson diagonalization with overlap
     ethr =  3.34E-10,  avg # of iterations =  2.0

     negative rho (up, down):  1.970E+00 0.000E+00

     total cpu time spent up to now is     5664.8 secs

     total energy              =   -7379.98001049 Ry
     Harris-Foulkes estimate   =   -7379.98001066 Ry
     estimated scf accuracy    <       0.00000064 Ry

     iteration # 22     ecut=    50.00 Ry     beta=0.70
     Davidson diagonalization with overlap
     ethr =  8.03E-11,  avg # of iterations =  2.0

     negative rho (up, down):  1.970E+00 0.000E+00

     total cpu time spent up to now is     5859.0 secs

     total energy              =   -7379.98001056 Ry
     Harris-Foulkes estimate   =   -7379.98001059 Ry
     estimated scf accuracy    <       0.00000011 Ry

     iteration # 23     ecut=    50.00 Ry     beta=0.70
     Davidson diagonalization with overlap
     ethr =  1.32E-11,  avg # of iterations =  2.0

     negative rho (up, down):  1.970E+00 0.000E+00

     total cpu time spent up to now is     6047.5 secs

     total energy              =   -7379.98001056 Ry
     Harris-Foulkes estimate   =   -7379.98001059 Ry
     estimated scf accuracy    <       0.00000008 Ry

     iteration # 24     ecut=    50.00 Ry     beta=0.70
     Davidson diagonalization with overlap
     ethr =  9.62E-12,  avg # of iterations =  3.0

     negative rho (up, down):  1.970E+00 0.000E+00

     total cpu time spent up to now is     6332.9 secs

     total energy              =   -7379.98001054 Ry
     Harris-Foulkes estimate   =   -7379.98001062 Ry
     estimated scf accuracy    <       0.00000046 Ry

     iteration # 25     ecut=    50.00 Ry     beta=0.70
     Davidson diagonalization with overlap
     ethr =  9.62E-12,  avg # of iterations =  3.0

     negative rho (up, down):  1.970E+00 0.000E+00

     total cpu time spent up to now is     6564.6 secs

     total energy              =   -7379.98001057 Ry
     Harris-Foulkes estimate   =   -7379.98001058 Ry
     estimated scf accuracy    <       0.00000002 Ry

     iteration # 26     ecut=    50.00 Ry     beta=0.70
     Davidson diagonalization with overlap
     ethr =  2.08E-12,  avg # of iterations =  2.0

     negative rho (up, down):  1.970E+00 0.000E+00

     total cpu time spent up to now is     6764.7 secs

     total energy              =   -7379.98001057 Ry
     Harris-Foulkes estimate   =   -7379.98001058 Ry
     estimated scf accuracy    <       0.00000010 Ry

     iteration # 27     ecut=    50.00 Ry     beta=0.70
     Davidson diagonalization with overlap
     ethr =  2.08E-12,  avg # of iterations =  2.0

     negative rho (up, down):  1.970E+00 0.000E+00

     total cpu time spent up to now is     6961.2 secs

     End of self-consistent calculation

          k = 0.2500 0.2500 0.0833 (167653 PWs)   bands (ev):

   -19.5181  -7.4064  -6.8300  -6.3018  -6.3001  -5.8632  -5.4599  -5.3615
    -5.3608  -5.1396  -5.1395  -5.0445  -5.0416  -4.9102  -4.9010  -4.7924
    -4.7036  -4.6992  -4.6795  -4.6780  -4.4980  -4.4958  -4.4955  -4.4694
    -4.4651  -4.4648  -4.4603  -4.4109  -4.4075  -4.4050  -4.4044  -4.3406
    -4.3126  -4.3122  -4.2580  -4.2526  -4.2515  -4.2161  -4.2150  -4.2009
    -4.1964  -4.1784  -4.1776  -4.1449  -4.1091  -4.1083  -4.1074  -4.1021
    -4.1017  -4.0797  -4.0473  -4.0416  -4.0121  -4.0118  -4.0089  -4.0078
    -4.0065  -4.0003  -3.9707  -3.9682  -3.9179  -3.9075  -3.8798  -3.8562
    -3.8420  -3.8395  -3.8383  -3.8167  -3.8154  -3.8048  -3.7581  -3.7534
    -3.7490  -3.7476  -3.6989  -3.6626  -3.6530  -3.6404  -3.6244  -3.6066
    -3.6020  -3.5884  -3.5646  -3.5613  -3.5194  -3.5191  -3.5176  -3.5156
    -3.4944  -3.4925  -3.4117  -3.4114  -3.4102  -3.3947  -3.3802  -3.3746
    -3.3649  -3.3644  -3.3584  -3.3564  -3.3155  -3.3143  -3.2948  -3.2920
    -3.2576  -3.2554  -3.2307  -3.2085  -3.2078  -3.1631  -3.1618  -3.1294
    -3.1029  -3.1007  -3.1000  -3.0998  -3.0957  -3.0951  -3.0730  -3.0583
    -3.0215  -3.0206  -3.0006  -2.9757  -2.9732  -2.9727  -2.9682  -2.9666
    -2.9630  -2.9624  -2.9281  -2.9263  -2.9257  -2.9217  -2.9198  -2.9153
    -2.8603  -2.8563  -2.8502  -2.8491  -2.8302  -2.8281  -2.8240  -2.7334
    -2.7250  -2.7237  -2.7161  -2.7135  -2.7094  -2.7071  -2.7062  -2.6978
    -2.6970  -2.6897  -2.6800  -2.6794  -2.6760  -2.6714  -2.6619  -2.6588
    -2.6542  -2.6340  -2.6231  -2.6209  -2.6063  -2.6061  -2.5923  -2.5893
    -2.5799  -2.5796  -2.5587  -2.5517  -2.5471  -2.5443  -2.5417  -2.5107
    -2.5059  -2.5048  -2.4474  -2.4426  -2.4307  -2.4293  -2.4214  -2.4154
    -2.3929  -2.3916  -2.3859  -2.3797  -2.3737  -2.3676  -2.3619  -2.3480
    -2.3454  -2.3199  -2.3174  -2.3106  -2.3088  -2.2987  -2.2980  -2.2866
    -2.2703  -2.2497  -2.1848  -2.1766  -2.1599  -2.1570  -2.1546  -2.1458
    -2.1099  -2.0943  -2.0875  -2.0613  -2.0548  -2.0499  -2.0297  -2.0167
    -2.0115  -1.9988  -1.9950  -1.9820  -1.9643  -1.9618  -1.9525  -1.9481
    -1.9472  -1.9429  -1.9297  -1.9196  -1.9126  -1.9075  -1.9066  -1.9048
    -1.9037  -1.9019  -1.8895  -1.8817  -1.8688  -1.8660  -1.8631  -1.8498
    -1.8479  -1.8454  -1.8445  -1.8385  -1.8362  -1.8128  -1.7999  -1.7634
    -1.7539  -1.7384  -1.7348  -1.6930  -1.6911  -1.6905  -1.6808  -1.6775
    -1.6671  -1.6636  -1.6587  -1.6524  -1.6485  -1.6298  -1.6272  -1.5947
    -1.5913  -1.5725  -1.5663  -1.5518  -1.5441  -1.5138  -1.4999  -1.4614
    -1.4548  -1.4383  -1.4204  -1.4138  -1.4128  -1.4084  -1.4039  -1.3905
    -1.3889  -1.3870  -1.3861  -1.3848  -1.3841  -1.3827  -1.3799  -1.3618
    -1.3553  -1.3436  -1.3221  -1.3210  -1.3165  -1.2982  -1.2978  -1.2936
    -1.2917  -1.2882  -1.2692  -1.2530  -1.2429  -1.2268  -1.2249  -1.2068
    -1.1997  -1.1951  -1.1873  -1.1666  -1.1648  -1.1584  -1.1451  -1.1193
    -1.1152  -1.1077  -1.1061  -1.1052  -1.0963  -1.0804  -1.0788  -1.0673
    -1.0596  -1.0576  -1.0466  -1.0453  -1.0448  -1.0371  -1.0344  -1.0231
    -1.0212  -1.0152  -1.0141  -1.0078  -1.0041  -0.9894  -0.9845  -0.9480
    -0.9459  -0.9441  -0.9411  -0.9376  -0.9360  -0.9086  -0.8977  -0.8958
    -0.8768  -0.8713  -0.8687  -0.8624  -0.8607  -0.8519  -0.8474  -0.8171
    -0.8148  -0.8047  -0.8029  -0.7847  -0.7837  -0.7690  -0.7463  -0.7367
    -0.7207  -0.7185  -0.6812  -0.6808  -0.6791  -0.6763  -0.6730  -0.6703
    -0.6697  -0.6686  -0.6637  -0.6633  -0.6315  -0.6307  -0.6281  -0.6276
    -0.6252  -0.6146  -0.6129  -0.6002  -0.5848  -0.3278  -0.3137  -0.2691
    -0.2577  -0.2374  -0.1742  -0.0279  -0.0266   0.0134   0.2875   0.2912
     0.6279   0.6349   0.6720   0.6733   0.7220   0.7268   0.8829   0.8892
     1.0091   1.0128   1.1302   1.6210   1.6625   1.6678   1.7032   1.7046
     1.8397   1.8463   1.8953   1.9009   2.0783   2.0805   2.3630   2.3893
     2.3978   2.4144   2.8434   2.8514   2.8686   2.8701   2.8883   2.8893
     2.9530   2.9535   3.1051   3.2308   3.2338   3.4196   3.4222   3.5272
     3.5956   3.5995   3.8963   3.8992   3.9496   3.9579   3.9591   4.0942
     4.1052   4.1145   4.1353   4.3968   4.3999   4.4381   4.4400   4.5481
     4.5538   4.6140   4.6239   4.8900   5.4745   5.5027   5.5067   5.5848
     5.6813   5.7034   5.7127   5.7791   5.7821   5.7981   5.7997   5.8737
     5.9059   5.9286   6.0914   6.1756   6.1971   6.2004   6.2055   6.2124
     6.2214   6.2330   6.3299   6.3803   6.3924   6.4080   6.4867   6.5273

          k = 0.2500 0.2500-0.2500 (167588 PWs)   bands (ev):

   -19.5181  -7.4064  -6.8300  -6.3018  -6.3001  -5.8632  -5.4599  -5.3615
    -5.3608  -5.1396  -5.1395  -5.0445  -5.0416  -4.9102  -4.9010  -4.7924
    -4.7036  -4.6992  -4.6795  -4.6780  -4.4980  -4.4958  -4.4955  -4.4694
    -4.4651  -4.4648  -4.4603  -4.4109  -4.4075  -4.4050  -4.4044  -4.3406
    -4.3126  -4.3122  -4.2580  -4.2526  -4.2515  -4.2160  -4.2150  -4.2009
    -4.1964  -4.1784  -4.1776  -4.1449  -4.1091  -4.1083  -4.1074  -4.1021
    -4.1017  -4.0797  -4.0473  -4.0416  -4.0121  -4.0118  -4.0089  -4.0078
    -4.0065  -4.0003  -3.9707  -3.9682  -3.9179  -3.9075  -3.8798  -3.8562
    -3.8420  -3.8394  -3.8383  -3.8167  -3.8154  -3.8048  -3.7581  -3.7534
    -3.7490  -3.7476  -3.6989  -3.6626  -3.6530  -3.6404  -3.6244  -3.6066
    -3.6020  -3.5884  -3.5646  -3.5613  -3.5194  -3.5191  -3.5176  -3.5156
    -3.4944  -3.4925  -3.4117  -3.4114  -3.4102  -3.3947  -3.3802  -3.3746
    -3.3649  -3.3644  -3.3584  -3.3564  -3.3155  -3.3143  -3.2948  -3.2920
    -3.2576  -3.2554  -3.2307  -3.2085  -3.2078  -3.1631  -3.1618  -3.1294
    -3.1029  -3.1007  -3.1000  -3.0998  -3.0957  -3.0951  -3.0730  -3.0583
    -3.0215  -3.0206  -3.0006  -2.9757  -2.9732  -2.9727  -2.9682  -2.9666
    -2.9630  -2.9624  -2.9281  -2.9263  -2.9257  -2.9217  -2.9198  -2.9153
    -2.8603  -2.8563  -2.8502  -2.8491  -2.8302  -2.8281  -2.8240  -2.7334
    -2.7250  -2.7237  -2.7161  -2.7135  -2.7093  -2.7071  -2.7062  -2.6978
    -2.6970  -2.6897  -2.6800  -2.6794  -2.6760  -2.6714  -2.6619  -2.6588
    -2.6542  -2.6340  -2.6231  -2.6209  -2.6063  -2.6061  -2.5923  -2.5893
    -2.5799  -2.5796  -2.5587  -2.5517  -2.5471  -2.5443  -2.5417  -2.5107
    -2.5059  -2.5048  -2.4474  -2.4426  -2.4307  -2.4293  -2.4214  -2.4154
    -2.3929  -2.3916  -2.3859  -2.3797  -2.3737  -2.3676  -2.3619  -2.3480
    -2.3453  -2.3199  -2.3174  -2.3106  -2.3088  -2.2987  -2.2980  -2.2866
    -2.2702  -2.2497  -2.1848  -2.1766  -2.1599  -2.1570  -2.1546  -2.1458
    -2.1099  -2.0943  -2.0875  -2.0613  -2.0548  -2.0499  -2.0297  -2.0167
    -2.0115  -1.9988  -1.9950  -1.9820  -1.9643  -1.9618  -1.9525  -1.9481
    -1.9472  -1.9429  -1.9297  -1.9196  -1.9126  -1.9075  -1.9066  -1.9048
    -1.9037  -1.9019  -1.8895  -1.8817  -1.8688  -1.8660  -1.8631  -1.8498
    -1.8479  -1.8455  -1.8445  -1.8385  -1.8362  -1.8128  -1.7999  -1.7634
    -1.7539  -1.7384  -1.7348  -1.6930  -1.6911  -1.6905  -1.6808  -1.6775
    -1.6671  -1.6636  -1.6587  -1.6524  -1.6485  -1.6298  -1.6272  -1.5947
    -1.5913  -1.5725  -1.5663  -1.5518  -1.5441  -1.5138  -1.4999  -1.4614
    -1.4548  -1.4384  -1.4204  -1.4138  -1.4128  -1.4084  -1.4039  -1.3905
    -1.3889  -1.3870  -1.3861  -1.3848  -1.3841  -1.3827  -1.3799  -1.3618
    -1.3553  -1.3436  -1.3221  -1.3210  -1.3165  -1.2982  -1.2978  -1.2935
    -1.2917  -1.2882  -1.2692  -1.2530  -1.2429  -1.2268  -1.2249  -1.2069
    -1.1997  -1.1951  -1.1873  -1.1666  -1.1648  -1.1584  -1.1451  -1.1193
    -1.1152  -1.1077  -1.1061  -1.1052  -1.0963  -1.0804  -1.0788  -1.0673
    -1.0596  -1.0576  -1.0466  -1.0453  -1.0448  -1.0371  -1.0344  -1.0231
    -1.0212  -1.0152  -1.0141  -1.0078  -1.0041  -0.9894  -0.9845  -0.9480
    -0.9459  -0.9441  -0.9411  -0.9377  -0.9360  -0.9086  -0.8977  -0.8958
    -0.8768  -0.8713  -0.8687  -0.8624  -0.8607  -0.8519  -0.8474  -0.8171
    -0.8148  -0.8047  -0.8029  -0.7847  -0.7837  -0.7690  -0.7463  -0.7367
    -0.7207  -0.7185  -0.6812  -0.6808  -0.6791  -0.6763  -0.6730  -0.6703
    -0.6697  -0.6686  -0.6637  -0.6633  -0.6315  -0.6307  -0.6281  -0.6276
    -0.6252  -0.6146  -0.6129  -0.6002  -0.5848  -0.3278  -0.3137  -0.2691
    -0.2577  -0.2374  -0.1742  -0.0279  -0.0266   0.0134   0.2875   0.2912
     0.6278   0.6349   0.6721   0.6733   0.7220   0.7268   0.8829   0.8892
     1.0091   1.0128   1.1302   1.6210   1.6625   1.6678   1.7032   1.7046
     1.8397   1.8463   1.8953   1.9009   2.0783   2.0805   2.3630   2.3893
     2.3978   2.4144   2.8434   2.8514   2.8686   2.8701   2.8883   2.8893
     2.9530   2.9535   3.1051   3.2308   3.2338   3.4196   3.4222   3.5272
     3.5956   3.5995   3.8963   3.8992   3.9496   3.9579   3.9591   4.0942
     4.1052   4.1145   4.1353   4.3968   4.3998   4.4381   4.4400   4.5481
     4.5538   4.6140   4.6239   4.8901   5.4718   5.5027   5.5058   5.5849
     5.6609   5.7034   5.7115   5.7787   5.7805   5.7981   5.7993   5.8681
     5.9080   5.9754   6.1441   6.1575   6.1815   6.1972   6.2028   6.2091
     6.2141   6.2330   6.3174   6.3819   6.3999   6.4812   6.5225   6.5565

          k =-0.2500-0.2500 0.0833 (167653 PWs)   bands (ev):

   -19.5181  -7.4064  -6.8300  -6.3018  -6.3001  -5.8632  -5.4599  -5.3615
    -5.3608  -5.1396  -5.1395  -5.0445  -5.0416  -4.9102  -4.9010  -4.7924
    -4.7036  -4.6992  -4.6795  -4.6780  -4.4980  -4.4958  -4.4955  -4.4694
    -4.4651  -4.4648  -4.4603  -4.4109  -4.4075  -4.4050  -4.4044  -4.3406
    -4.3126  -4.3122  -4.2580  -4.2526  -4.2515  -4.2161  -4.2150  -4.2009
    -4.1964  -4.1784  -4.1776  -4.1449  -4.1091  -4.1083  -4.1074  -4.1021
    -4.1017  -4.0797  -4.0473  -4.0416  -4.0121  -4.0118  -4.0089  -4.0078
    -4.0065  -4.0003  -3.9707  -3.9682  -3.9179  -3.9075  -3.8798  -3.8562
    -3.8420  -3.8395  -3.8383  -3.8167  -3.8154  -3.8048  -3.7581  -3.7534
    -3.7490  -3.7476  -3.6989  -3.6626  -3.6530  -3.6404  -3.6244  -3.6066
    -3.6020  -3.5884  -3.5646  -3.5613  -3.5194  -3.5191  -3.5176  -3.5156
    -3.4944  -3.4925  -3.4117  -3.4114  -3.4102  -3.3947  -3.3802  -3.3746
    -3.3649  -3.3644  -3.3584  -3.3564  -3.3155  -3.3143  -3.2948  -3.2920
    -3.2576  -3.2554  -3.2307  -3.2085  -3.2078  -3.1631  -3.1618  -3.1294
    -3.1029  -3.1007  -3.1000  -3.0998  -3.0957  -3.0951  -3.0730  -3.0583
    -3.0215  -3.0206  -3.0006  -2.9757  -2.9732  -2.9727  -2.9682  -2.9666
    -2.9630  -2.9624  -2.9281  -2.9263  -2.9257  -2.9217  -2.9198  -2.9153
    -2.8603  -2.8563  -2.8502  -2.8491  -2.8302  -2.8281  -2.8240  -2.7334
    -2.7250  -2.7237  -2.7161  -2.7135  -2.7094  -2.7071  -2.7062  -2.6978
    -2.6970  -2.6897  -2.6800  -2.6794  -2.6760  -2.6714  -2.6619  -2.6588
    -2.6542  -2.6340  -2.6231  -2.6209  -2.6063  -2.6061  -2.5923  -2.5893
    -2.5799  -2.5796  -2.5587  -2.5517  -2.5471  -2.5443  -2.5417  -2.5107
    -2.5059  -2.5048  -2.4474  -2.4426  -2.4307  -2.4293  -2.4214  -2.4154
    -2.3929  -2.3916  -2.3859  -2.3797  -2.3737  -2.3676  -2.3619  -2.3480
    -2.3454  -2.3199  -2.3174  -2.3106  -2.3088  -2.2987  -2.2980  -2.2866
    -2.2703  -2.2497  -2.1848  -2.1766  -2.1599  -2.1570  -2.1546  -2.1458
    -2.1099  -2.0943  -2.0875  -2.0613  -2.0548  -2.0499  -2.0297  -2.0167
    -2.0115  -1.9988  -1.9950  -1.9820  -1.9643  -1.9618  -1.9525  -1.9481
    -1.9472  -1.9429  -1.9297  -1.9196  -1.9126  -1.9075  -1.9066  -1.9048
    -1.9037  -1.9019  -1.8895  -1.8817  -1.8688  -1.8660  -1.8631  -1.8498
    -1.8479  -1.8454  -1.8445  -1.8385  -1.8362  -1.8128  -1.7999  -1.7634
    -1.7539  -1.7384  -1.7348  -1.6930  -1.6911  -1.6905  -1.6808  -1.6775
    -1.6671  -1.6636  -1.6587  -1.6524  -1.6485  -1.6298  -1.6272  -1.5947
    -1.5913  -1.5725  -1.5663  -1.5518  -1.5441  -1.5138  -1.4999  -1.4614
    -1.4548  -1.4383  -1.4204  -1.4138  -1.4128  -1.4084  -1.4039  -1.3905
    -1.3889  -1.3870  -1.3861  -1.3848  -1.3841  -1.3827  -1.3799  -1.3618
    -1.3553  -1.3436  -1.3221  -1.3210  -1.3165  -1.2982  -1.2978  -1.2936
    -1.2917  -1.2882  -1.2692  -1.2530  -1.2429  -1.2268  -1.2249  -1.2068
    -1.1997  -1.1951  -1.1873  -1.1666  -1.1648  -1.1584  -1.1451  -1.1193
    -1.1152  -1.1077  -1.1061  -1.1052  -1.0963  -1.0804  -1.0788  -1.0673
    -1.0596  -1.0576  -1.0466  -1.0453  -1.0448  -1.0371  -1.0344  -1.0231
    -1.0212  -1.0152  -1.0141  -1.0078  -1.0041  -0.9894  -0.9845  -0.9480
    -0.9459  -0.9441  -0.9411  -0.9376  -0.9360  -0.9086  -0.8977  -0.8958
    -0.8768  -0.8713  -0.8687  -0.8624  -0.8607  -0.8519  -0.8474  -0.8171
    -0.8148  -0.8047  -0.8029  -0.7847  -0.7837  -0.7690  -0.7463  -0.7367
    -0.7207  -0.7185  -0.6812  -0.6808  -0.6791  -0.6763  -0.6730  -0.6703
    -0.6697  -0.6686  -0.6637  -0.6633  -0.6315  -0.6307  -0.6281  -0.6276
    -0.6252  -0.6146  -0.6129  -0.6002  -0.5848  -0.3278  -0.3137  -0.2691
    -0.2577  -0.2374  -0.1742  -0.0279  -0.0266   0.0134   0.2875   0.2912
     0.6279   0.6349   0.6720   0.6733   0.7220   0.7268   0.8829   0.8892
     1.0091   1.0128   1.1302   1.6210   1.6625   1.6678   1.7032   1.7046
     1.8397   1.8463   1.8953   1.9009   2.0783   2.0805   2.3630   2.3893
     2.3978   2.4144   2.8434   2.8514   2.8686   2.8701   2.8883   2.8893
     2.9530   2.9535   3.1051   3.2308   3.2338   3.4196   3.4222   3.5272
     3.5956   3.5995   3.8963   3.8992   3.9496   3.9579   3.9591   4.0942
     4.1052   4.1145   4.1353   4.3968   4.3999   4.4381   4.4400   4.5481
     4.5538   4.6140   4.6239   4.8900   5.4743   5.5027   5.5066   5.5848
     5.6823   5.7034   5.7133   5.7790   5.7817   5.7981   5.7996   5.8696
     5.9073   5.9302   6.0928   6.1759   6.1971   6.2003   6.2054   6.2123
     6.2211   6.2328   6.3358   6.3804   6.3924   6.4027   6.4814   6.5265

          k =-0.2500 0.2500-0.0833 (167653 PWs)   bands (ev):

   -19.5181  -7.4064  -6.8300  -6.3024  -6.2995  -5.8633  -5.4599  -5.3631
    -5.3593  -5.1398  -5.1391  -5.0455  -5.0410  -4.9097  -4.9012  -4.7922
    -4.7035  -4.6995  -4.6801  -4.6781  -4.4979  -4.4976  -4.4940  -4.4694
    -4.4650  -4.4648  -4.4603  -4.4115  -4.4063  -4.4059  -4.4028  -4.3407
    -4.3128  -4.3120  -4.2576  -4.2531  -4.2510  -4.2185  -4.2134  -4.2011
    -4.1963  -4.1784  -4.1776  -4.1428  -4.1098  -4.1076  -4.1059  -4.1030
    -4.1010  -4.0767  -4.0536  -4.0418  -4.0134  -4.0104  -4.0092  -4.0078
    -4.0069  -3.9998  -3.9738  -3.9671  -3.9137  -3.9063  -3.8786  -3.8654
    -3.8419  -3.8398  -3.8385  -3.8171  -3.8152  -3.8046  -3.7558  -3.7534
    -3.7495  -3.7465  -3.6941  -3.6628  -3.6549  -3.6402  -3.6250  -3.6071
    -3.6041  -3.5884  -3.5648  -3.5588  -3.5209  -3.5180  -3.5174  -3.5133
    -3.4953  -3.4907  -3.4132  -3.4120  -3.4103  -3.3943  -3.3817  -3.3745
    -3.3662  -3.3638  -3.3587  -3.3536  -3.3156  -3.3133  -3.2957  -3.2909
    -3.2586  -3.2545  -3.2309  -3.2093  -3.2077  -3.1639  -3.1606  -3.1296
    -3.1029  -3.1006  -3.1001  -3.0999  -3.0963  -3.0949  -3.0731  -3.0583
    -3.0218  -3.0210  -3.0003  -2.9759  -2.9745  -2.9720  -2.9691  -2.9646
    -2.9629  -2.9622  -2.9285  -2.9263  -2.9245  -2.9224  -2.9196  -2.9155
    -2.8603  -2.8572  -2.8518  -2.8487  -2.8303  -2.8281  -2.8237  -2.7334
    -2.7259  -2.7227  -2.7184  -2.7116  -2.7095  -2.7075  -2.7056  -2.6980
    -2.6967  -2.6896  -2.6795  -2.6792  -2.6763  -2.6713  -2.6615  -2.6588
    -2.6540  -2.6340  -2.6244  -2.6198  -2.6074  -2.6056  -2.5921  -2.5892
    -2.5810  -2.5785  -2.5587  -2.5519  -2.5475  -2.5439  -2.5412  -2.5114
    -2.5060  -2.5046  -2.4478  -2.4426  -2.4304  -2.4285  -2.4216  -2.4148
    -2.3940  -2.3907  -2.3859  -2.3801  -2.3741  -2.3672  -2.3603  -2.3501
    -2.3431  -2.3198  -2.3172  -2.3101  -2.3076  -2.3001  -2.2972  -2.2881
    -2.2711  -2.2497  -2.1831  -2.1777  -2.1609  -2.1565  -2.1541  -2.1458
    -2.1092  -2.0957  -2.0882  -2.0606  -2.0549  -2.0491  -2.0293  -2.0169
    -2.0123  -1.9984  -1.9962  -1.9799  -1.9729  -1.9583  -1.9527  -1.9477
    -1.9469  -1.9427  -1.9321  -1.9198  -1.9124  -1.9072  -1.9066  -1.9048
    -1.9039  -1.9007  -1.8891  -1.8811  -1.8692  -1.8662  -1.8630  -1.8497
    -1.8480  -1.8459  -1.8433  -1.8378  -1.8364  -1.8129  -1.8009  -1.7668
    -1.7552  -1.7389  -1.7351  -1.6931  -1.6915  -1.6903  -1.6802  -1.6754
    -1.6668  -1.6635  -1.6589  -1.6520  -1.6480  -1.6289  -1.6275  -1.5944
    -1.5911  -1.5724  -1.5603  -1.5526  -1.5461  -1.5141  -1.4983  -1.4617
    -1.4551  -1.4385  -1.4195  -1.4137  -1.4125  -1.4087  -1.4037  -1.3921
    -1.3912  -1.3862  -1.3854  -1.3849  -1.3843  -1.3828  -1.3802  -1.3620
    -1.3544  -1.3427  -1.3231  -1.3212  -1.3134  -1.2996  -1.2966  -1.2954
    -1.2919  -1.2879  -1.2695  -1.2530  -1.2402  -1.2276  -1.2248  -1.2068
    -1.2000  -1.1954  -1.1868  -1.1663  -1.1640  -1.1588  -1.1457  -1.1226
    -1.1119  -1.1083  -1.1061  -1.1040  -1.0972  -1.0819  -1.0782  -1.0664
    -1.0611  -1.0563  -1.0484  -1.0464  -1.0422  -1.0371  -1.0342  -1.0227
    -1.0188  -1.0161  -1.0139  -1.0073  -1.0061  -0.9902  -0.9845  -0.9460
    -0.9452  -0.9442  -0.9419  -0.9388  -0.9361  -0.9093  -0.8982  -0.8944
    -0.8790  -0.8700  -0.8684  -0.8630  -0.8608  -0.8517  -0.8463  -0.8184
    -0.8128  -0.8043  -0.8028  -0.7851  -0.7836  -0.7687  -0.7453  -0.7367
    -0.7215  -0.7174  -0.6823  -0.6813  -0.6785  -0.6763  -0.6728  -0.6714
    -0.6702  -0.6683  -0.6637  -0.6631  -0.6327  -0.6297  -0.6286  -0.6275
    -0.6261  -0.6153  -0.6134  -0.5969  -0.5842  -0.3282  -0.3137  -0.2731
    -0.2524  -0.2380  -0.1765  -0.0303  -0.0251   0.0123   0.2855   0.2947
     0.6227   0.6387   0.6696   0.6757   0.7176   0.7282   0.8767   0.8961
     1.0093   1.0131   1.1314   1.6215   1.6662   1.6683   1.7029   1.7056
     1.8258   1.8564   1.8917   1.9085   2.0738   2.0839   2.3641   2.3835
     2.4025   2.4139   2.8316   2.8558   2.8696   2.8757   2.8854   2.8919
     2.9514   2.9548   3.1008   3.2203   3.2448   3.4181   3.4229   3.5268
     3.5909   3.6052   3.8873   3.9069   3.9537   3.9579   3.9622   4.0914
     4.1003   4.1097   4.1408   4.3933   4.4029   4.4369   4.4442   4.5501
     4.5564   4.6079   4.6321   4.8933   5.4545   5.5033   5.5228   5.5829
     5.6800   5.6970   5.7179   5.7782   5.7848   5.7868   5.8033   5.8732
     5.9066   5.9271   6.0943   6.1745   6.1943   6.2001   6.2100   6.2129
     6.2165   6.2313   6.3316   6.3798   6.3912   6.4006   6.4908   6.5215

          k = 0.2500-0.2500-0.0833 (167653 PWs)   bands (ev):

   -19.5181  -7.4063  -6.8300  -6.3024  -6.2995  -5.8633  -5.4599  -5.3631
    -5.3593  -5.1398  -5.1391  -5.0455  -5.0410  -4.9097  -4.9012  -4.7922
    -4.7035  -4.6995  -4.6801  -4.6781  -4.4979  -4.4976  -4.4940  -4.4694
    -4.4650  -4.4648  -4.4603  -4.4115  -4.4063  -4.4059  -4.4028  -4.3407
    -4.3128  -4.3120  -4.2576  -4.2531  -4.2510  -4.2185  -4.2134  -4.2011
    -4.1963  -4.1784  -4.1776  -4.1428  -4.1098  -4.1076  -4.1059  -4.1030
    -4.1010  -4.0767  -4.0536  -4.0418  -4.0134  -4.0104  -4.0092  -4.0078
    -4.0069  -3.9998  -3.9738  -3.9671  -3.9137  -3.9063  -3.8786  -3.8654
    -3.8419  -3.8398  -3.8385  -3.8171  -3.8152  -3.8046  -3.7558  -3.7534
    -3.7495  -3.7465  -3.6941  -3.6628  -3.6549  -3.6402  -3.6250  -3.6071
    -3.6041  -3.5884  -3.5648  -3.5588  -3.5209  -3.5180  -3.5174  -3.5133
    -3.4953  -3.4907  -3.4132  -3.4120  -3.4103  -3.3943  -3.3817  -3.3745
    -3.3662  -3.3638  -3.3587  -3.3536  -3.3156  -3.3133  -3.2957  -3.2909
    -3.2586  -3.2545  -3.2309  -3.2093  -3.2077  -3.1639  -3.1606  -3.1296
    -3.1029  -3.1006  -3.1001  -3.0999  -3.0963  -3.0949  -3.0731  -3.0583
    -3.0218  -3.0210  -3.0003  -2.9759  -2.9745  -2.9720  -2.9691  -2.9646
    -2.9629  -2.9622  -2.9285  -2.9263  -2.9245  -2.9224  -2.9196  -2.9155
    -2.8603  -2.8572  -2.8518  -2.8487  -2.8303  -2.8281  -2.8237  -2.7334
    -2.7259  -2.7227  -2.7184  -2.7116  -2.7095  -2.7075  -2.7056  -2.6980
    -2.6967  -2.6896  -2.6795  -2.6792  -2.6763  -2.6713  -2.6615  -2.6588
    -2.6540  -2.6340  -2.6244  -2.6199  -2.6074  -2.6056  -2.5921  -2.5892
    -2.5810  -2.5785  -2.5587  -2.5519  -2.5475  -2.5439  -2.5412  -2.5114
    -2.5060  -2.5046  -2.4478  -2.4426  -2.4304  -2.4285  -2.4216  -2.4148
    -2.3940  -2.3907  -2.3859  -2.3801  -2.3741  -2.3672  -2.3603  -2.3501
    -2.3431  -2.3198  -2.3172  -2.3101  -2.3076  -2.3001  -2.2972  -2.2881
    -2.2711  -2.2497  -2.1831  -2.1777  -2.1609  -2.1565  -2.1541  -2.1458
    -2.1092  -2.0957  -2.0882  -2.0606  -2.0549  -2.0491  -2.0293  -2.0169
    -2.0123  -1.9984  -1.9962  -1.9799  -1.9729  -1.9583  -1.9527  -1.9477
    -1.9469  -1.9427  -1.9321  -1.9198  -1.9124  -1.9072  -1.9066  -1.9048
    -1.9039  -1.9007  -1.8891  -1.8811  -1.8692  -1.8662  -1.8630  -1.8497
    -1.8480  -1.8459  -1.8433  -1.8378  -1.8364  -1.8129  -1.8009  -1.7668
    -1.7552  -1.7389  -1.7351  -1.6931  -1.6915  -1.6903  -1.6802  -1.6754
    -1.6668  -1.6635  -1.6589  -1.6520  -1.6480  -1.6289  -1.6275  -1.5944
    -1.5911  -1.5724  -1.5603  -1.5526  -1.5461  -1.5141  -1.4983  -1.4617
    -1.4551  -1.4385  -1.4195  -1.4137  -1.4125  -1.4087  -1.4037  -1.3921
    -1.3912  -1.3862  -1.3854  -1.3849  -1.3843  -1.3828  -1.3802  -1.3620
    -1.3544  -1.3427  -1.3231  -1.3212  -1.3134  -1.2996  -1.2966  -1.2954
    -1.2919  -1.2879  -1.2695  -1.2530  -1.2402  -1.2276  -1.2248  -1.2068
    -1.2000  -1.1954  -1.1868  -1.1663  -1.1640  -1.1588  -1.1457  -1.1226
    -1.1119  -1.1083  -1.1061  -1.1040  -1.0972  -1.0819  -1.0782  -1.0664
    -1.0611  -1.0563  -1.0484  -1.0464  -1.0422  -1.0371  -1.0342  -1.0227
    -1.0188  -1.0161  -1.0139  -1.0073  -1.0061  -0.9902  -0.9845  -0.9460
    -0.9452  -0.9442  -0.9419  -0.9388  -0.9361  -0.9093  -0.8982  -0.8944
    -0.8790  -0.8700  -0.8684  -0.8630  -0.8608  -0.8517  -0.8463  -0.8184
    -0.8128  -0.8043  -0.8028  -0.7851  -0.7836  -0.7687  -0.7453  -0.7367
    -0.7215  -0.7174  -0.6823  -0.6813  -0.6785  -0.6763  -0.6728  -0.6714
    -0.6702  -0.6683  -0.6637  -0.6631  -0.6327  -0.6297  -0.6286  -0.6275
    -0.6261  -0.6153  -0.6134  -0.5969  -0.5842  -0.3282  -0.3137  -0.2731
    -0.2524  -0.2380  -0.1765  -0.0303  -0.0251   0.0123   0.2855   0.2947
     0.6227   0.6387   0.6696   0.6757   0.7176   0.7282   0.8767   0.8961
     1.0093   1.0131   1.1314   1.6215   1.6662   1.6683   1.7029   1.7056
     1.8258   1.8564   1.8917   1.9085   2.0738   2.0839   2.3641   2.3835
     2.4025   2.4139   2.8316   2.8558   2.8696   2.8757   2.8854   2.8919
     2.9514   2.9548   3.1008   3.2203   3.2448   3.4181   3.4229   3.5268
     3.5909   3.6052   3.8873   3.9069   3.9537   3.9579   3.9622   4.0914
     4.1003   4.1097   4.1408   4.3933   4.4029   4.4369   4.4442   4.5501
     4.5564   4.6079   4.6321   4.8933   5.4545   5.5033   5.5229   5.5830
     5.6803   5.6968   5.7176   5.7780   5.7848   5.7872   5.8031   5.8734
     5.9057   5.9264   6.0965   6.1739   6.1943   6.2001   6.2101   6.2129
     6.2168   6.2315   6.3282   6.3737   6.3900   6.4086   6.4940   6.5248

          k =-0.2500 0.2500 0.2500 (167588 PWs)   bands (ev):

   -19.5181  -7.4063  -6.8300  -6.3024  -6.2995  -5.8633  -5.4599  -5.3631
    -5.3593  -5.1398  -5.1391  -5.0455  -5.0410  -4.9097  -4.9012  -4.7922
    -4.7035  -4.6995  -4.6801  -4.6780  -4.4979  -4.4976  -4.4940  -4.4694
    -4.4650  -4.4648  -4.4603  -4.4115  -4.4063  -4.4059  -4.4028  -4.3407
    -4.3128  -4.3120  -4.2576  -4.2531  -4.2510  -4.2185  -4.2133  -4.2011
    -4.1963  -4.1784  -4.1776  -4.1428  -4.1098  -4.1076  -4.1059  -4.1030
    -4.1010  -4.0767  -4.0536  -4.0418  -4.0134  -4.0104  -4.0092  -4.0078
    -4.0069  -3.9998  -3.9738  -3.9671  -3.9137  -3.9063  -3.8786  -3.8654
    -3.8419  -3.8398  -3.8385  -3.8171  -3.8152  -3.8046  -3.7558  -3.7534
    -3.7495  -3.7465  -3.6941  -3.6628  -3.6549  -3.6402  -3.6250  -3.6071
    -3.6041  -3.5884  -3.5648  -3.5588  -3.5209  -3.5180  -3.5174  -3.5133
    -3.4953  -3.4907  -3.4132  -3.4120  -3.4103  -3.3943  -3.3817  -3.3745
    -3.3662  -3.3638  -3.3587  -3.3536  -3.3156  -3.3133  -3.2957  -3.2909
    -3.2586  -3.2545  -3.2309  -3.2093  -3.2077  -3.1639  -3.1606  -3.1296
    -3.1029  -3.1006  -3.1001  -3.0999  -3.0963  -3.0949  -3.0731  -3.0583
    -3.0218  -3.0210  -3.0003  -2.9759  -2.9745  -2.9720  -2.9691  -2.9646
    -2.9629  -2.9622  -2.9285  -2.9263  -2.9245  -2.9224  -2.9196  -2.9154
    -2.8603  -2.8572  -2.8518  -2.8487  -2.8303  -2.8281  -2.8237  -2.7334
    -2.7259  -2.7227  -2.7184  -2.7116  -2.7095  -2.7075  -2.7056  -2.6980
    -2.6967  -2.6896  -2.6795  -2.6792  -2.6763  -2.6714  -2.6615  -2.6588
    -2.6539  -2.6340  -2.6244  -2.6198  -2.6074  -2.6056  -2.5921  -2.5892
    -2.5810  -2.5784  -2.5587  -2.5519  -2.5475  -2.5439  -2.5412  -2.5114
    -2.5060  -2.5046  -2.4479  -2.4426  -2.4304  -2.4285  -2.4216  -2.4148
    -2.3940  -2.3907  -2.3859  -2.3801  -2.3740  -2.3672  -2.3603  -2.3501
    -2.3431  -2.3198  -2.3172  -2.3101  -2.3076  -2.3001  -2.2972  -2.2881
    -2.2711  -2.2497  -2.1832  -2.1778  -2.1609  -2.1565  -2.1541  -2.1458
    -2.1092  -2.0957  -2.0882  -2.0606  -2.0549  -2.0491  -2.0293  -2.0169
    -2.0123  -1.9984  -1.9962  -1.9799  -1.9729  -1.9583  -1.9527  -1.9477
    -1.9469  -1.9427  -1.9321  -1.9198  -1.9124  -1.9072  -1.9066  -1.9048
    -1.9039  -1.9007  -1.8891  -1.8811  -1.8692  -1.8662  -1.8630  -1.8497
    -1.8480  -1.8459  -1.8433  -1.8378  -1.8364  -1.8129  -1.8009  -1.7668
    -1.7552  -1.7389  -1.7351  -1.6931  -1.6915  -1.6903  -1.6802  -1.6753
    -1.6668  -1.6635  -1.6589  -1.6520  -1.6480  -1.6289  -1.6275  -1.5944
    -1.5911  -1.5724  -1.5603  -1.5526  -1.5461  -1.5141  -1.4983  -1.4617
    -1.4551  -1.4385  -1.4195  -1.4138  -1.4125  -1.4087  -1.4037  -1.3921
    -1.3912  -1.3862  -1.3854  -1.3849  -1.3843  -1.3828  -1.3802  -1.3620
    -1.3544  -1.3427  -1.3231  -1.3212  -1.3134  -1.2996  -1.2966  -1.2954
    -1.2919  -1.2879  -1.2695  -1.2530  -1.2402  -1.2276  -1.2248  -1.2069
    -1.2000  -1.1954  -1.1868  -1.1663  -1.1640  -1.1588  -1.1457  -1.1226
    -1.1119  -1.1083  -1.1061  -1.1040  -1.0972  -1.0819  -1.0781  -1.0664
    -1.0611  -1.0563  -1.0484  -1.0464  -1.0422  -1.0371  -1.0342  -1.0227
    -1.0188  -1.0161  -1.0139  -1.0073  -1.0061  -0.9902  -0.9845  -0.9460
    -0.9452  -0.9442  -0.9419  -0.9388  -0.9362  -0.9093  -0.8982  -0.8944
    -0.8790  -0.8700  -0.8684  -0.8630  -0.8608  -0.8517  -0.8463  -0.8184
    -0.8128  -0.8043  -0.8028  -0.7851  -0.7836  -0.7687  -0.7453  -0.7367
    -0.7215  -0.7174  -0.6823  -0.6813  -0.6785  -0.6763  -0.6728  -0.6714
    -0.6702  -0.6683  -0.6637  -0.6631  -0.6327  -0.6297  -0.6286  -0.6275
    -0.6261  -0.6153  -0.6134  -0.5969  -0.5842  -0.3282  -0.3137  -0.2731
    -0.2524  -0.2380  -0.1765  -0.0303  -0.0251   0.0123   0.2855   0.2947
     0.6227   0.6387   0.6696   0.6757   0.7176   0.7282   0.8767   0.8961
     1.0093   1.0131   1.1314   1.6215   1.6662   1.6683   1.7029   1.7056
     1.8258   1.8564   1.8917   1.9085   2.0738   2.0839   2.3641   2.3835
     2.4025   2.4139   2.8316   2.8558   2.8696   2.8757   2.8854   2.8919
     2.9514   2.9548   3.1008   3.2203   3.2448   3.4181   3.4229   3.5268
     3.5909   3.6052   3.8873   3.9069   3.9537   3.9579   3.9622   4.0914
     4.1003   4.1098   4.1409   4.3933   4.4028   4.4369   4.4442   4.5501
     4.5564   4.6079   4.6321   4.8934   5.4527   5.5033   5.5211   5.5825
     5.6605   5.6963   5.7165   5.7776   5.7845   5.7861   5.8030   5.8711
     5.9067   5.9713   6.1410   6.1561   6.1748   6.1999   6.2083   6.2126
     6.2152   6.2319   6.3170   6.3850   6.3881   6.4870   6.5152   6.5711

     the Fermi energy is     0.9560 ev

!    total energy              =   -7379.98001057 Ry
     Harris-Foulkes estimate   =   -7379.98001058 Ry
     estimated scf accuracy    <          8.5E-09 Ry

     The total energy is the sum of the following terms:

     one-electron contribution =  -48890.94810740 Ry
     hartree contribution      =   24995.01855425 Ry
     xc contribution           =   -3556.27747956 Ry
     ewald contribution        =   20072.22583925 Ry
     smearing contrib. (-TS)   =       0.00118289 Ry

     convergence has been achieved in  27 iterations

     Writing output data file 2854570.save

     init_run     :    109.79s CPU    115.63s WALL (       1 calls)
     electrons    :   6505.98s CPU   6845.49s WALL (       1 calls)

     Called by init_run:
     wfcinit      :     87.96s CPU     93.44s WALL (       1 calls)
     potinit      :      3.27s CPU      3.36s WALL (       1 calls)

     Called by electrons:
     c_bands      :   5468.44s CPU   5738.33s WALL (      28 calls)
     sum_band     :    791.62s CPU    855.08s WALL (      28 calls)
     v_of_rho     :     12.26s CPU     13.65s WALL (      28 calls)
     newd         :    240.24s CPU    243.73s WALL (      28 calls)
     mix_rho      :      2.01s CPU      2.36s WALL (      28 calls)

     Called by c_bands:
     init_us_2    :      8.31s CPU      8.51s WALL (     342 calls)
     cegterg      :   5288.75s CPU   5557.33s WALL (     168 calls)

     Called by *egterg:
     h_psi        :   2109.36s CPU   2351.53s WALL (     833 calls)
     s_psi        :    347.60s CPU    349.29s WALL (     833 calls)
     g_psi        :      4.56s CPU      4.55s WALL (     659 calls)
     cdiaghg      :   1460.86s CPU   1465.19s WALL (     821 calls)

     Called by h_psi:
     add_vuspsi   :    349.24s CPU    350.85s WALL (     833 calls)

     General routines
     calbec       :    616.02s CPU    618.09s WALL (    1001 calls)
     fft          :     71.17s CPU     73.53s WALL (     448 calls)
     ffts         :      0.91s CPU      1.12s WALL (      56 calls)
     fftw         :   1532.18s CPU   1810.90s WALL (  451844 calls)
     interpolate  :      2.39s CPU      3.02s WALL (      56 calls)
     davcio       :      0.01s CPU      0.11s WALL (       6 calls)

     Parallel routines
     fft_scatter  :   1066.11s CPU   1275.83s WALL (  452348 calls)

     PWSCF        :     1h50m CPU        1h56m WALL


   This run was terminated on:  16:30:45  11Aug2015            

=------------------------------------------------------------------------------=
   JOB DONE.
=------------------------------------------------------------------------------=
