Setting SGE environment for SCC

     Program PWSCF v.5.1.2 starts on  7Aug2015 at 18: 2: 3 

     This program is part of the open-source Quantum ESPRESSO suite
     for quantum simulation of materials; please cite
         "P. Giannozzi et al., J. Phys.:Condens. Matter 21 395502 (2009);
          URL http://www.quantum-espresso.org", 
     in publications or presentations arising from this work. More details at
     http://www.quantum-espresso.org/quote

     Parallel version (MPI), running on    32 processors
     R & G space division:  proc/nbgrp/npool/nimage =      32
     Reading input from top.O1.Au5859.d.3.1.phi.0.psi.180.in
Warning: card &IONS ignored
Warning: card / ignored
Warning: card &CELL ignored
Warning: card / ignored

     Current dimensions of program PWSCF are:
     Max number of different atomic species (ntypx) = 10
     Max number of k-points (npk) =  40000
     Max angular momentum in pseudopotentials (lmaxx) =  3

     Subspace diagonalization in iterative solution of the eigenvalue problem:
     a serial algorithm will be used


     Parallelization info
     --------------------
     sticks:   dense  smooth     PW     G-vecs:    dense   smooth      PW
     Min         578     289     74               118518    41891    5486
     Max         579     290     75               118533    41932    5497
     Sum       18505    9265   2385              3792731  1341081  175711


     Title: 
     top.O1.Au5859.d.3.1.phi.0.psi.180                                          


     bravais-lattice index     =            8
     lattice parameter (alat)  =      24.1233  a.u.
     unit-cell volume          =   28076.2361 (a.u.)^3
     number of atoms/cell      =           75
     number of atomic types    =            3
     number of electrons       =       800.00
     number of Kohn-Sham states=          480
     kinetic-energy cutoff     =      50.0000  Ry
     charge density cutoff     =     400.0000  Ry
     convergence threshold     =      1.0E-08
     mixing beta               =       0.7000
     number of iterations used =            8  plain     mixing
     Exchange-correlation      =  SLA  PW   PBE  PBE ( 1  4  3  4 0 0)

     celldm(1)=  24.123277  celldm(2)=   1.000000  celldm(3)=   2.000000
     celldm(4)=   0.000000  celldm(5)=   0.000000  celldm(6)=   0.000000

     crystal axes: (cart. coord. in units of alat)
               a(1) = (   1.000000   0.000000   0.000000 )  
               a(2) = (   0.000000   1.000000   0.000000 )  
               a(3) = (   0.000000   0.000000   2.000000 )  

     reciprocal axes: (cart. coord. in units 2 pi/alat)
               b(1) = (  1.000000  0.000000  0.000000 )  
               b(2) = (  0.000000  1.000000  0.000000 )  
               b(3) = (  0.000000  0.000000  0.500000 )  


     PseudoPot. # 1 for Au read from file:
     /home/scc/andrejb/qe/pseudo/Au.pbe-nd-van.UPF
     MD5 check sum: 458681b50f36d87ef23c61b04bba420a
     Pseudo is Ultrasoft + core correction, Zval = 11.0
     Generated by new atomic code, or converted to UPF format
     Using radial grid of  985 points,  3 beta functions with: 
                l(1) =   1
                l(2) =   2
                l(3) =   2
     Q(r) pseudized with  8 coefficients,  rinner =    1.100   1.100   1.100
                                                       1.100   1.100

     PseudoPot. # 2 for H  read from file:
     /home/scc/andrejb/qe/pseudo/H.pbe-van_ak.UPF
     MD5 check sum: 403db7282739603aa925980fa9b8608d
     Pseudo is Ultrasoft, Zval =  1.0
     Generated by new atomic code, or converted to UPF format
     Using radial grid of  615 points,  1 beta functions with: 
                l(1) =   0
     Q(r) pseudized with  8 coefficients,  rinner =    0.800

     PseudoPot. # 3 for O  read from file:
     /home/scc/andrejb/qe/pseudo/O.pbe-van_ak.UPF
     MD5 check sum: 4b8c549914a63cae506c6ff22b5af4fe
     Pseudo is Ultrasoft, Zval =  6.0
     Generated by new atomic code, or converted to UPF format
     Using radial grid of  737 points,  4 beta functions with: 
                l(1) =   0
                l(2) =   0
                l(3) =   1
                l(4) =   1
     Q(r) pseudized with  8 coefficients,  rinner =    0.800   0.800   0.800


     atomic species   valence    mass     pseudopotential
        Au            11.00   196.96657     Au( 1.00)
        H              1.00     1.01000     H ( 1.00)
        O              6.00    16.00000     O ( 1.00)

     No symmetry found



   Cartesian axes

     site n.     atom                  positions (alat units)
         1           O   tau(   1) = (   0.1666051   0.1666105   0.9536641  )
         2           H   tau(   2) = (   0.1195275   0.2057820   0.9081702  )
         3           H   tau(   3) = (   0.2122554   0.1286088   0.9058064  )
         4           Au  tau(   4) = (   0.0000000   0.0000000   0.0000000  )
         5           Au  tau(   5) = (   0.3332217   0.0000000   0.0000000  )
         6           Au  tau(   6) = (   0.6664434   0.0000000   0.0000000  )
         7           Au  tau(   7) = (   0.1666109   0.1666109   0.0000000  )
         8           Au  tau(   8) = (   0.4998326   0.1666109   0.0000000  )
         9           Au  tau(   9) = (   0.8330542   0.1666109   0.0000000  )
        10           Au  tau(  10) = (   0.0000000   0.3332217   0.0000000  )
        11           Au  tau(  11) = (   0.3332217   0.3332217   0.0000000  )
        12           Au  tau(  12) = (   0.6664434   0.3332217   0.0000000  )
        13           Au  tau(  13) = (   0.1666109   0.4998326   0.0000000  )
        14           Au  tau(  14) = (   0.4998326   0.4998326   0.0000000  )
        15           Au  tau(  15) = (   0.8330542   0.4998326   0.0000000  )
        16           Au  tau(  16) = (   0.0000000   0.6664434   0.0000000  )
        17           Au  tau(  17) = (   0.3332217   0.6664434   0.0000000  )
        18           Au  tau(  18) = (   0.6664434   0.6664434   0.0000000  )
        19           Au  tau(  19) = (   0.1666109   0.8330542   0.0000000  )
        20           Au  tau(  20) = (   0.4998326   0.8330542   0.0000000  )
        21           Au  tau(  21) = (   0.8330542   0.8330542   0.0000000  )
        22           Au  tau(  22) = (   0.1666109   0.0000000   0.1666109  )
        23           Au  tau(  23) = (   0.4998326   0.0000000   0.1666109  )
        24           Au  tau(  24) = (   0.8330542   0.0000000   0.1666109  )
        25           Au  tau(  25) = (   0.0000000   0.1666109   0.1666109  )
        26           Au  tau(  26) = (   0.3332217   0.1666109   0.1666109  )
        27           Au  tau(  27) = (   0.6664434   0.1666109   0.1666109  )
        28           Au  tau(  28) = (   0.1666109   0.3332217   0.1666109  )
        29           Au  tau(  29) = (   0.4998326   0.3332217   0.1666109  )
        30           Au  tau(  30) = (   0.8330542   0.3332217   0.1666109  )
        31           Au  tau(  31) = (   0.0000000   0.4998326   0.1666109  )
        32           Au  tau(  32) = (   0.3332217   0.4998326   0.1666109  )
        33           Au  tau(  33) = (   0.6664434   0.4998326   0.1666109  )
        34           Au  tau(  34) = (   0.1666109   0.6664434   0.1666109  )
        35           Au  tau(  35) = (   0.4998326   0.6664434   0.1666109  )
        36           Au  tau(  36) = (   0.8330542   0.6664434   0.1666109  )
        37           Au  tau(  37) = (   0.0000000   0.8330542   0.1666109  )
        38           Au  tau(  38) = (   0.3332217   0.8330542   0.1666109  )
        39           Au  tau(  39) = (   0.6664434   0.8330542   0.1666109  )
        40           Au  tau(  40) = (  -0.0000182  -0.0000182   0.3335478  )
        41           Au  tau(  41) = (   0.3332215  -0.0000181   0.3335473  )
        42           Au  tau(  42) = (   0.6664447  -0.0000183   0.3335481  )
        43           Au  tau(  43) = (  -0.0000181   0.3332215   0.3335473  )
        44           Au  tau(  44) = (   0.3332215   0.3332215   0.3335468  )
        45           Au  tau(  45) = (   0.6664445   0.3332215   0.3335477  )
        46           Au  tau(  46) = (  -0.0000183   0.6664447   0.3335481  )
        47           Au  tau(  47) = (   0.3332215   0.6664445   0.3335477  )
        48           Au  tau(  48) = (   0.6664446   0.6664446   0.3335486  )
        49           Au  tau(  49) = (   0.1666097   0.1666097   0.3335483  )
        50           Au  tau(  50) = (   0.4998320   0.1666098   0.3335477  )
        51           Au  tau(  51) = (   0.8330732   0.1666096   0.3335480  )
        52           Au  tau(  52) = (   0.1666098   0.4998320   0.3335477  )
        53           Au  tau(  53) = (   0.4998322   0.4998322   0.3335470  )
        54           Au  tau(  54) = (   0.8330731   0.4998322   0.3335474  )
        55           Au  tau(  55) = (   0.1666096   0.8330732   0.3335480  )
        56           Au  tau(  56) = (   0.4998322   0.8330731   0.3335474  )
        57           Au  tau(  57) = (   0.8330731   0.8330731   0.3335478  )
        58           Au  tau(  58) = (   0.1666104  -0.0000111   0.4993095  )
        59           Au  tau(  59) = (   0.4998323  -0.0000112   0.4993099  )
        60           Au  tau(  60) = (   0.8330660  -0.0000111   0.4993009  )
        61           Au  tau(  61) = (  -0.0000111   0.1666104   0.4993095  )
        62           Au  tau(  62) = (   0.3332213   0.1666106   0.4993185  )
        63           Au  tau(  63) = (   0.6664437   0.1666106   0.4993187  )
        64           Au  tau(  64) = (   0.1666106   0.3332213   0.4993185  )
        65           Au  tau(  65) = (   0.4998324   0.3332216   0.4993185  )
        66           Au  tau(  66) = (   0.8330658   0.3332215   0.4993102  )
        67           Au  tau(  67) = (  -0.0000112   0.4998323   0.4993099  )
        68           Au  tau(  68) = (   0.3332216   0.4998324   0.4993185  )
        69           Au  tau(  69) = (   0.6664437   0.4998325   0.4993187  )
        70           Au  tau(  70) = (   0.1666106   0.6664437   0.4993187  )
        71           Au  tau(  71) = (   0.4998325   0.6664437   0.4993187  )
        72           Au  tau(  72) = (   0.8330658   0.6664438   0.4993102  )
        73           Au  tau(  73) = (  -0.0000111   0.8330660   0.4993009  )
        74           Au  tau(  74) = (   0.3332215   0.8330658   0.4993102  )
        75           Au  tau(  75) = (   0.6664438   0.8330658   0.4993102  )

     number of k points=     6  Marzari-Vanderbilt smearing, width (Ry)=  0.0200
                       cart. coord. in units 2pi/alat
        k(    1) = (   0.2500000   0.2500000   0.0833333), wk =   0.3333333
        k(    2) = (   0.2500000   0.2500000  -0.2500000), wk =   0.3333333
        k(    3) = (  -0.2500000  -0.2500000   0.0833333), wk =   0.3333333
        k(    4) = (  -0.2500000   0.2500000  -0.0833333), wk =   0.3333333
        k(    5) = (   0.2500000  -0.2500000  -0.0833333), wk =   0.3333333
        k(    6) = (  -0.2500000   0.2500000   0.2500000), wk =   0.3333333

     Dense  grid:  3792731 G-vectors     FFT dimensions: ( 160, 160, 320)

     Smooth grid:  1341081 G-vectors     FFT dimensions: ( 120, 120, 225)

     Largest allocated arrays     est. size (Mb)     dimensions
        Kohn-Sham Wavefunctions        38.58 Mb     (    5267,  480)
        NL pseudopotentials            76.03 Mb     (    5267,  946)
        Each V/rho on FFT grid          3.91 Mb     (  256000)
        Each G-vector array             0.90 Mb     (  118520)
        G-vector shells                 0.08 Mb     (   10286)
     Largest temporary arrays     est. size (Mb)     dimensions
        Auxiliary wavefunctions       154.31 Mb     (    5267, 1920)
        Each subspace H/S matrix       56.25 Mb     (    1920, 1920)
        Each <psi_i|beta_j> matrix      6.93 Mb     (     946,  480)
        Arrays for rho mixing          31.25 Mb     (  256000,    8)

     Initial potential from superposition of free atoms
     Check: negative starting charge=   -1.944775

     starting charge  799.16392, renormalised to  800.00000

     negative rho (up, down):  1.947E+00 0.000E+00
     Starting wfc are  654 randomized atomic wfcs

     total cpu time spent up to now is      130.1 secs

     Self-consistent Calculation

     iteration #  1     ecut=    50.00 Ry     beta=0.70
     Davidson diagonalization with overlap
     ethr =  1.00E-02,  avg # of iterations =  3.0

     Threshold (ethr) on eigenvalues was too large:
     Diagonalizing with lowered threshold

     Davidson diagonalization with overlap
     ethr =  5.01E-04,  avg # of iterations =  2.0

     negative rho (up, down):  1.932E+00 0.000E+00

     total cpu time spent up to now is      612.0 secs

     total energy              =   -7377.39626258 Ry
     Harris-Foulkes estimate   =   -7380.96369054 Ry
     estimated scf accuracy    <       4.52825490 Ry

     iteration #  2     ecut=    50.00 Ry     beta=0.70
     Davidson diagonalization with overlap
     ethr =  5.66E-04,  avg # of iterations = 11.3

     negative rho (up, down):  1.930E+00 0.000E+00

     total cpu time spent up to now is     1403.2 secs

     total energy              =   -7368.70168212 Ry
     Harris-Foulkes estimate   =   -7388.00372867 Ry
     estimated scf accuracy    <      99.49474018 Ry

     iteration #  3     ecut=    50.00 Ry     beta=0.70
     Davidson diagonalization with overlap
     ethr =  5.66E-04,  avg # of iterations =  6.0

     negative rho (up, down):  1.947E+00 0.000E+00

     total cpu time spent up to now is     1880.9 secs

     total energy              =   -7378.46087294 Ry
     Harris-Foulkes estimate   =   -7380.77055612 Ry
     estimated scf accuracy    <       9.42092642 Ry

     iteration #  4     ecut=    50.00 Ry     beta=0.70
     Davidson diagonalization with overlap
     ethr =  5.66E-04,  avg # of iterations =  6.5

     negative rho (up, down):  1.950E+00 0.000E+00

     total cpu time spent up to now is     2170.4 secs

     total energy              =   -7379.14288720 Ry
     Harris-Foulkes estimate   =   -7380.57774371 Ry
     estimated scf accuracy    <       8.76552909 Ry

     iteration #  5     ecut=    50.00 Ry     beta=0.70
     Davidson diagonalization with overlap
     ethr =  5.66E-04,  avg # of iterations =  5.2

     negative rho (up, down):  1.961E+00 0.000E+00

     total cpu time spent up to now is     2455.4 secs

     total energy              =   -7379.73915716 Ry
     Harris-Foulkes estimate   =   -7380.34418292 Ry
     estimated scf accuracy    <       4.67007459 Ry

     iteration #  6     ecut=    50.00 Ry     beta=0.70
     Davidson diagonalization with overlap
     ethr =  5.66E-04,  avg # of iterations =  3.5

     negative rho (up, down):  1.965E+00 0.000E+00

     total cpu time spent up to now is     2694.0 secs

     total energy              =   -7379.97685268 Ry
     Harris-Foulkes estimate   =   -7380.01603292 Ry
     estimated scf accuracy    <       0.12075713 Ry

     iteration #  7     ecut=    50.00 Ry     beta=0.70
     Davidson diagonalization with overlap
     ethr =  1.51E-05,  avg # of iterations = 10.3

     negative rho (up, down):  1.967E+00 0.000E+00

     total cpu time spent up to now is     3086.0 secs

     total energy              =   -7379.96451505 Ry
     Harris-Foulkes estimate   =   -7380.02478709 Ry
     estimated scf accuracy    <       0.34077305 Ry

     iteration #  8     ecut=    50.00 Ry     beta=0.70
     Davidson diagonalization with overlap
     ethr =  1.51E-05,  avg # of iterations =  3.3

     negative rho (up, down):  1.968E+00 0.000E+00

     total cpu time spent up to now is     3367.3 secs

     total energy              =   -7379.98187743 Ry
     Harris-Foulkes estimate   =   -7379.99657199 Ry
     estimated scf accuracy    <       0.05085569 Ry

     iteration #  9     ecut=    50.00 Ry     beta=0.70
     Davidson diagonalization with overlap
     ethr =  6.36E-06,  avg # of iterations =  7.5

     negative rho (up, down):  1.969E+00 0.000E+00

     total cpu time spent up to now is     3662.9 secs

     total energy              =   -7379.97852406 Ry
     Harris-Foulkes estimate   =   -7379.98833352 Ry
     estimated scf accuracy    <       0.03208247 Ry

     iteration # 10     ecut=    50.00 Ry     beta=0.70
     Davidson diagonalization with overlap
     c_bands:  1 eigenvalues not converged
     ethr =  4.01E-06,  avg # of iterations = 10.0

     negative rho (up, down):  1.971E+00 0.000E+00

     total cpu time spent up to now is     3985.6 secs

     total energy              =   -7379.97832662 Ry
     Harris-Foulkes estimate   =   -7379.98323433 Ry
     estimated scf accuracy    <       0.01432621 Ry

     iteration # 11     ecut=    50.00 Ry     beta=0.70
     Davidson diagonalization with overlap
     ethr =  1.79E-06,  avg # of iterations = 12.7

     negative rho (up, down):  1.971E+00 0.000E+00

     total cpu time spent up to now is     4353.8 secs

     total energy              =   -7379.97865756 Ry
     Harris-Foulkes estimate   =   -7379.98029349 Ry
     estimated scf accuracy    <       0.00580606 Ry

     iteration # 12     ecut=    50.00 Ry     beta=0.70
     Davidson diagonalization with overlap
     ethr =  7.26E-07,  avg # of iterations =  3.5

     negative rho (up, down):  1.972E+00 0.000E+00

     total cpu time spent up to now is     4624.7 secs

     total energy              =   -7379.97809866 Ry
     Harris-Foulkes estimate   =   -7379.97921899 Ry
     estimated scf accuracy    <       0.00153929 Ry

     iteration # 13     ecut=    50.00 Ry     beta=0.70
     Davidson diagonalization with overlap
     ethr =  1.92E-07,  avg # of iterations =  7.8

     negative rho (up, down):  1.971E+00 0.000E+00

     total cpu time spent up to now is     5048.9 secs

     total energy              =   -7379.97785442 Ry
     Harris-Foulkes estimate   =   -7379.97892693 Ry
     estimated scf accuracy    <       0.00481333 Ry

     iteration # 14     ecut=    50.00 Ry     beta=0.70
     Davidson diagonalization with overlap
     ethr =  1.92E-07,  avg # of iterations =  3.0

     negative rho (up, down):  1.971E+00 0.000E+00

     total cpu time spent up to now is     5315.1 secs

     total energy              =   -7379.97831290 Ry
     Harris-Foulkes estimate   =   -7379.97851300 Ry
     estimated scf accuracy    <       0.00085703 Ry

     iteration # 15     ecut=    50.00 Ry     beta=0.70
     Davidson diagonalization with overlap
     ethr =  1.07E-07,  avg # of iterations =  2.0

     negative rho (up, down):  1.971E+00 0.000E+00

     total cpu time spent up to now is     5551.3 secs

     total energy              =   -7379.97835579 Ry
     Harris-Foulkes estimate   =   -7379.97848455 Ry
     estimated scf accuracy    <       0.00054718 Ry

     iteration # 16     ecut=    50.00 Ry     beta=0.70
     Davidson diagonalization with overlap
     ethr =  6.84E-08,  avg # of iterations =  2.5

     negative rho (up, down):  1.971E+00 0.000E+00

     total cpu time spent up to now is     5814.0 secs

     total energy              =   -7379.97836879 Ry
     Harris-Foulkes estimate   =   -7379.97849632 Ry
     estimated scf accuracy    <       0.00103582 Ry

     iteration # 17     ecut=    50.00 Ry     beta=0.70
     Davidson diagonalization with overlap
     ethr =  6.84E-08,  avg # of iterations =  1.0

     negative rho (up, down):  1.971E+00 0.000E+00

     total cpu time spent up to now is     6061.3 secs

     total energy              =   -7379.97843113 Ry
     Harris-Foulkes estimate   =   -7379.97844000 Ry
     estimated scf accuracy    <       0.00002597 Ry

     iteration # 18     ecut=    50.00 Ry     beta=0.70
     Davidson diagonalization with overlap
     ethr =  3.25E-09,  avg # of iterations =  2.0

     negative rho (up, down):  1.971E+00 0.000E+00

     total cpu time spent up to now is     6316.9 secs

     total energy              =   -7379.97843432 Ry
     Harris-Foulkes estimate   =   -7379.97843775 Ry
     estimated scf accuracy    <       0.00001074 Ry

     iteration # 19     ecut=    50.00 Ry     beta=0.70
     Davidson diagonalization with overlap
     ethr =  1.34E-09,  avg # of iterations =  2.0

     negative rho (up, down):  1.971E+00 0.000E+00

     total cpu time spent up to now is     6558.1 secs

     total energy              =   -7379.97843503 Ry
     Harris-Foulkes estimate   =   -7379.97843731 Ry
     estimated scf accuracy    <       0.00000983 Ry

     iteration # 20     ecut=    50.00 Ry     beta=0.70
     Davidson diagonalization with overlap
     ethr =  1.23E-09,  avg # of iterations =  2.0

     negative rho (up, down):  1.971E+00 0.000E+00

     total cpu time spent up to now is     6786.0 secs

     total energy              =   -7379.97843590 Ry
     Harris-Foulkes estimate   =   -7379.97843684 Ry
     estimated scf accuracy    <       0.00000434 Ry

     iteration # 21     ecut=    50.00 Ry     beta=0.70
     Davidson diagonalization with overlap
     ethr =  5.42E-10,  avg # of iterations =  2.0

     negative rho (up, down):  1.971E+00 0.000E+00

     total cpu time spent up to now is     7008.8 secs

     total energy              =   -7379.97843630 Ry
     Harris-Foulkes estimate   =   -7379.97843657 Ry
     estimated scf accuracy    <       0.00000101 Ry

     iteration # 22     ecut=    50.00 Ry     beta=0.70
     Davidson diagonalization with overlap
     ethr =  1.26E-10,  avg # of iterations =  2.0

     negative rho (up, down):  1.971E+00 0.000E+00

     total cpu time spent up to now is     7255.8 secs

     total energy              =   -7379.97843639 Ry
     Harris-Foulkes estimate   =   -7379.97843653 Ry
     estimated scf accuracy    <       0.00000046 Ry

     iteration # 23     ecut=    50.00 Ry     beta=0.70
     Davidson diagonalization with overlap
     ethr =  5.80E-11,  avg # of iterations =  2.2

     negative rho (up, down):  1.971E+00 0.000E+00

     total cpu time spent up to now is     7476.1 secs

     total energy              =   -7379.97843643 Ry
     Harris-Foulkes estimate   =   -7379.97843648 Ry
     estimated scf accuracy    <       0.00000012 Ry

     iteration # 24     ecut=    50.00 Ry     beta=0.70
     Davidson diagonalization with overlap
     ethr =  1.54E-11,  avg # of iterations =  3.0

     negative rho (up, down):  1.971E+00 0.000E+00

     total cpu time spent up to now is     7716.9 secs

     total energy              =   -7379.97843644 Ry
     Harris-Foulkes estimate   =   -7379.97843649 Ry
     estimated scf accuracy    <       0.00000029 Ry

     iteration # 25     ecut=    50.00 Ry     beta=0.70
     Davidson diagonalization with overlap
     ethr =  1.54E-11,  avg # of iterations =  2.0

     negative rho (up, down):  1.971E+00 0.000E+00

     total cpu time spent up to now is     7943.0 secs

     total energy              =   -7379.97843646 Ry
     Harris-Foulkes estimate   =   -7379.97843647 Ry
     estimated scf accuracy    <       0.00000005 Ry

     iteration # 26     ecut=    50.00 Ry     beta=0.70
     Davidson diagonalization with overlap
     ethr =  6.54E-12,  avg # of iterations =  2.0

     negative rho (up, down):  1.971E+00 0.000E+00

     total cpu time spent up to now is     8171.4 secs

     total energy              =   -7379.97843646 Ry
     Harris-Foulkes estimate   =   -7379.97843648 Ry
     estimated scf accuracy    <       0.00000016 Ry

     iteration # 27     ecut=    50.00 Ry     beta=0.70
     Davidson diagonalization with overlap
     ethr =  6.54E-12,  avg # of iterations =  2.0

     negative rho (up, down):  1.971E+00 0.000E+00

     total cpu time spent up to now is     8391.6 secs

     total energy              =   -7379.97843647 Ry
     Harris-Foulkes estimate   =   -7379.97843647 Ry
     estimated scf accuracy    <       0.00000001 Ry

     iteration # 28     ecut=    50.00 Ry     beta=0.70
     Davidson diagonalization with overlap
     ethr =  1.71E-12,  avg # of iterations =  3.0

     negative rho (up, down):  1.971E+00 0.000E+00

     total cpu time spent up to now is     8617.1 secs

     End of self-consistent calculation

          k = 0.2500 0.2500 0.0833 (167653 PWs)   bands (ev):

   -19.0818  -6.9150  -6.8952  -6.3847  -6.3846  -5.9465  -5.5429  -5.4443
    -5.4442  -5.2225  -5.2225  -5.1255  -5.1253  -4.9920  -4.9844  -4.8749
    -4.7867  -4.7822  -4.7611  -4.7611  -4.5802  -4.5789  -4.5788  -4.5526
    -4.5480  -4.5475  -4.5433  -4.4903  -4.4901  -4.4876  -4.4875  -4.4239
    -4.3954  -4.3953  -4.3385  -4.3354  -4.3340  -4.2980  -4.2979  -4.2842
    -4.2793  -4.2608  -4.2607  -4.2241  -4.1913  -4.1911  -4.1878  -4.1851
    -4.1850  -4.1550  -4.1247  -4.1246  -4.0950  -4.0950  -4.0910  -4.0910
    -4.0892  -4.0825  -4.0505  -4.0503  -3.9903  -3.9902  -3.9580  -3.9322
    -3.9243  -3.9212  -3.9207  -3.8987  -3.8987  -3.8868  -3.8365  -3.8365
    -3.8307  -3.8306  -3.7451  -3.7449  -3.7229  -3.7227  -3.6883  -3.6869
    -3.6712  -3.6470  -3.6470  -3.6026  -3.6025  -3.6001  -3.6000  -3.5752
    -3.5751  -3.4951  -3.4945  -3.4939  -3.4777  -3.4637  -3.4604  -3.4479
    -3.4478  -3.4404  -3.4404  -3.3977  -3.3977  -3.3750  -3.3749  -3.3380
    -3.3379  -3.3117  -3.2907  -3.2907  -3.2444  -3.2444  -3.2119  -3.1842
    -3.1840  -3.1831  -3.1829  -3.1788  -3.1787  -3.1524  -3.1411  -3.1034
    -3.1034  -3.0907  -3.0823  -3.0587  -3.0557  -3.0556  -3.0490  -3.0489
    -3.0447  -3.0447  -3.0095  -3.0085  -3.0085  -3.0030  -3.0030  -2.9980
    -2.9422  -2.9377  -2.9330  -2.9328  -2.9108  -2.9108  -2.9054  -2.8168
    -2.8062  -2.8061  -2.7965  -2.7964  -2.7907  -2.7895  -2.7885  -2.7805
    -2.7805  -2.7698  -2.7625  -2.7590  -2.7589  -2.7546  -2.7443  -2.7395
    -2.7373  -2.7151  -2.7044  -2.7042  -2.6885  -2.6884  -2.6715  -2.6715
    -2.6626  -2.6625  -2.6420  -2.6292  -2.6292  -2.6238  -2.6238  -2.5899
    -2.5875  -2.5875  -2.5297  -2.5257  -2.5111  -2.5111  -2.5003  -2.4962
    -2.4730  -2.4729  -2.4687  -2.4559  -2.4558  -2.4443  -2.4440  -2.4275
    -2.4272  -2.4001  -2.4001  -2.3898  -2.3898  -2.3800  -2.3799  -2.3628
    -2.3497  -2.3291  -2.2604  -2.2585  -2.2394  -2.2394  -2.2274  -2.2274
    -2.1773  -2.1771  -2.1621  -2.1426  -2.1300  -2.1300  -2.1118  -2.0934
    -2.0933  -2.0801  -2.0733  -2.0434  -2.0431  -2.0395  -2.0305  -2.0304
    -2.0249  -2.0248  -2.0069  -1.9953  -1.9873  -1.9872  -1.9867  -1.9867
    -1.9856  -1.9853  -1.9715  -1.9515  -1.9515  -1.9480  -1.9427  -1.9299
    -1.9298  -1.9254  -1.9253  -1.9194  -1.9177  -1.8832  -1.8830  -1.8386
    -1.8193  -1.8193  -1.7735  -1.7734  -1.7733  -1.7626  -1.7624  -1.7486
    -1.7485  -1.7410  -1.7409  -1.7304  -1.7303  -1.7100  -1.7100  -1.6731
    -1.6730  -1.6556  -1.6333  -1.6332  -1.5938  -1.5937  -1.5431  -1.5430
    -1.5221  -1.4985  -1.4957  -1.4952  -1.4907  -1.4886  -1.4694  -1.4693
    -1.4683  -1.4681  -1.4662  -1.4662  -1.4653  -1.4643  -1.4631  -1.4360
    -1.4360  -1.4031  -1.4022  -1.4022  -1.3795  -1.3794  -1.3750  -1.3749
    -1.3718  -1.3613  -1.3336  -1.3334  -1.3091  -1.3076  -1.3076  -1.2875
    -1.2762  -1.2761  -1.2468  -1.2467  -1.2398  -1.2398  -1.2011  -1.2010
    -1.1891  -1.1890  -1.1883  -1.1882  -1.1619  -1.1618  -1.1477  -1.1404
    -1.1403  -1.1285  -1.1283  -1.1265  -1.1264  -1.1154  -1.1054  -1.1043
    -1.0977  -1.0977  -1.0908  -1.0867  -1.0867  -1.0704  -1.0503  -1.0283
    -1.0266  -1.0262  -1.0254  -1.0228  -1.0190  -0.9916  -0.9915  -0.9778
    -0.9602  -0.9599  -0.9517  -0.9516  -0.9433  -0.9372  -0.9339  -0.8985
    -0.8983  -0.8869  -0.8869  -0.8666  -0.8666  -0.8511  -0.8270  -0.8189
    -0.8011  -0.8010  -0.7634  -0.7633  -0.7606  -0.7601  -0.7590  -0.7539
    -0.7523  -0.7522  -0.7476  -0.7456  -0.7125  -0.7124  -0.7111  -0.7110
    -0.7095  -0.7093  -0.6955  -0.6954  -0.6671  -0.4072  -0.3963  -0.3529
    -0.3523  -0.3217  -0.2628  -0.1103  -0.1102  -0.0795   0.2052   0.2053
     0.5459   0.5465   0.5897   0.5897   0.6397   0.6400   0.7993   0.7996
     0.9272   0.9293   1.0427   1.5382   1.5785   1.5863   1.6210   1.6218
     1.7581   1.7602   1.8149   1.8151   1.9975   1.9976   2.2826   2.3094
     2.3100   2.3305   2.7648   2.7667   2.7890   2.7892   2.8055   2.8057
     2.8711   2.8720   3.0279   3.1495   3.1502   3.3389   3.3406   3.4463
     3.5182   3.5184   3.8180   3.8183   3.8750   3.8764   3.8765   4.0233
     4.0238   4.0345   4.0477   4.3190   4.3210   4.3569   4.3572   4.4722
     4.4746   4.5375   4.5396   4.8068   5.1383   5.4193   5.4222   5.5014
     5.5206   5.6276   5.6281   5.6994   5.7001   5.7168   5.7170   5.8198
     5.8292   5.9108   6.0640   6.0847   6.1166   6.1176   6.1294   6.1307
     6.1311   6.1447   6.2988   6.3050   6.3533   6.3908   6.4339   6.4450

          k = 0.2500 0.2500-0.2500 (167588 PWs)   bands (ev):

   -19.0818  -6.9150  -6.8952  -6.3847  -6.3846  -5.9465  -5.5429  -5.4443
    -5.4442  -5.2225  -5.2225  -5.1255  -5.1253  -4.9920  -4.9844  -4.8749
    -4.7867  -4.7822  -4.7611  -4.7611  -4.5802  -4.5789  -4.5788  -4.5526
    -4.5480  -4.5475  -4.5433  -4.4903  -4.4901  -4.4876  -4.4875  -4.4239
    -4.3954  -4.3953  -4.3385  -4.3354  -4.3340  -4.2980  -4.2979  -4.2842
    -4.2793  -4.2608  -4.2607  -4.2241  -4.1913  -4.1911  -4.1878  -4.1851
    -4.1850  -4.1550  -4.1247  -4.1246  -4.0950  -4.0950  -4.0910  -4.0910
    -4.0892  -4.0825  -4.0505  -4.0503  -3.9903  -3.9902  -3.9580  -3.9322
    -3.9243  -3.9212  -3.9207  -3.8987  -3.8987  -3.8868  -3.8365  -3.8365
    -3.8307  -3.8306  -3.7451  -3.7449  -3.7229  -3.7228  -3.6883  -3.6869
    -3.6712  -3.6470  -3.6470  -3.6026  -3.6025  -3.6001  -3.6000  -3.5752
    -3.5751  -3.4951  -3.4945  -3.4939  -3.4777  -3.4637  -3.4604  -3.4479
    -3.4478  -3.4404  -3.4404  -3.3977  -3.3977  -3.3750  -3.3749  -3.3380
    -3.3379  -3.3117  -3.2907  -3.2907  -3.2444  -3.2444  -3.2119  -3.1842
    -3.1840  -3.1831  -3.1829  -3.1788  -3.1787  -3.1525  -3.1411  -3.1034
    -3.1034  -3.0906  -3.0823  -3.0587  -3.0557  -3.0556  -3.0490  -3.0489
    -3.0447  -3.0447  -3.0095  -3.0085  -3.0085  -3.0030  -3.0030  -2.9980
    -2.9422  -2.9377  -2.9330  -2.9328  -2.9108  -2.9107  -2.9054  -2.8168
    -2.8062  -2.8061  -2.7965  -2.7964  -2.7907  -2.7895  -2.7885  -2.7805
    -2.7804  -2.7698  -2.7625  -2.7590  -2.7589  -2.7546  -2.7443  -2.7395
    -2.7373  -2.7151  -2.7044  -2.7042  -2.6885  -2.6884  -2.6715  -2.6715
    -2.6626  -2.6625  -2.6420  -2.6292  -2.6292  -2.6238  -2.6238  -2.5899
    -2.5875  -2.5875  -2.5297  -2.5257  -2.5111  -2.5111  -2.5003  -2.4962
    -2.4730  -2.4729  -2.4687  -2.4559  -2.4558  -2.4443  -2.4440  -2.4274
    -2.4272  -2.4001  -2.4001  -2.3899  -2.3898  -2.3800  -2.3799  -2.3628
    -2.3497  -2.3291  -2.2604  -2.2585  -2.2394  -2.2393  -2.2275  -2.2274
    -2.1773  -2.1771  -2.1621  -2.1426  -2.1300  -2.1300  -2.1118  -2.0934
    -2.0933  -2.0801  -2.0733  -2.0434  -2.0431  -2.0395  -2.0305  -2.0304
    -2.0249  -2.0248  -2.0069  -1.9953  -1.9873  -1.9872  -1.9867  -1.9867
    -1.9856  -1.9853  -1.9716  -1.9515  -1.9514  -1.9480  -1.9427  -1.9299
    -1.9298  -1.9254  -1.9253  -1.9194  -1.9177  -1.8832  -1.8830  -1.8386
    -1.8193  -1.8193  -1.7735  -1.7734  -1.7733  -1.7626  -1.7624  -1.7486
    -1.7485  -1.7410  -1.7409  -1.7304  -1.7303  -1.7100  -1.7100  -1.6731
    -1.6730  -1.6556  -1.6333  -1.6332  -1.5938  -1.5937  -1.5431  -1.5430
    -1.5221  -1.4985  -1.4957  -1.4952  -1.4907  -1.4886  -1.4694  -1.4693
    -1.4683  -1.4681  -1.4662  -1.4662  -1.4653  -1.4643  -1.4631  -1.4360
    -1.4360  -1.4031  -1.4022  -1.4022  -1.3795  -1.3794  -1.3750  -1.3749
    -1.3718  -1.3613  -1.3336  -1.3334  -1.3091  -1.3076  -1.3076  -1.2875
    -1.2762  -1.2761  -1.2468  -1.2467  -1.2398  -1.2398  -1.2011  -1.2010
    -1.1891  -1.1890  -1.1883  -1.1882  -1.1619  -1.1618  -1.1477  -1.1404
    -1.1403  -1.1285  -1.1283  -1.1265  -1.1264  -1.1154  -1.1054  -1.1043
    -1.0977  -1.0977  -1.0908  -1.0867  -1.0867  -1.0704  -1.0503  -1.0283
    -1.0267  -1.0262  -1.0254  -1.0228  -1.0190  -0.9916  -0.9915  -0.9778
    -0.9602  -0.9599  -0.9516  -0.9516  -0.9433  -0.9372  -0.9339  -0.8984
    -0.8983  -0.8869  -0.8869  -0.8666  -0.8666  -0.8511  -0.8270  -0.8189
    -0.8011  -0.8010  -0.7634  -0.7633  -0.7606  -0.7601  -0.7590  -0.7539
    -0.7523  -0.7522  -0.7476  -0.7456  -0.7125  -0.7124  -0.7111  -0.7110
    -0.7095  -0.7093  -0.6955  -0.6954  -0.6671  -0.4072  -0.3963  -0.3529
    -0.3523  -0.3217  -0.2628  -0.1103  -0.1102  -0.0795   0.2052   0.2053
     0.5459   0.5465   0.5897   0.5897   0.6397   0.6400   0.7993   0.7996
     0.9272   0.9293   1.0427   1.5382   1.5785   1.5863   1.6210   1.6218
     1.7581   1.7602   1.8149   1.8151   1.9975   1.9976   2.2826   2.3094
     2.3100   2.3306   2.7648   2.7667   2.7890   2.7892   2.8055   2.8057
     2.8711   2.8720   3.0279   3.1495   3.1502   3.3389   3.3406   3.4463
     3.5182   3.5184   3.8180   3.8183   3.8750   3.8764   3.8765   4.0233
     4.0238   4.0346   4.0477   4.3189   4.3210   4.3569   4.3572   4.4722
     4.4746   4.5375   4.5396   4.8069   5.1359   5.4193   5.4221   5.5015
     5.5197   5.6276   5.6281   5.6994   5.7001   5.7168   5.7170   5.8142
     5.8291   5.8968   6.0569   6.1160   6.1172   6.1269   6.1307   6.1311
     6.1443   6.1555   6.2955   6.3041   6.3889   6.4240   6.4345   6.4754

          k =-0.2500-0.2500 0.0833 (167653 PWs)   bands (ev):

   -19.0818  -6.9150  -6.8952  -6.3847  -6.3846  -5.9465  -5.5429  -5.4443
    -5.4442  -5.2225  -5.2225  -5.1255  -5.1253  -4.9920  -4.9844  -4.8749
    -4.7867  -4.7822  -4.7611  -4.7611  -4.5802  -4.5789  -4.5788  -4.5526
    -4.5480  -4.5475  -4.5433  -4.4903  -4.4901  -4.4876  -4.4875  -4.4239
    -4.3954  -4.3953  -4.3385  -4.3354  -4.3340  -4.2980  -4.2979  -4.2842
    -4.2793  -4.2608  -4.2607  -4.2241  -4.1913  -4.1911  -4.1878  -4.1851
    -4.1850  -4.1550  -4.1247  -4.1246  -4.0950  -4.0950  -4.0910  -4.0910
    -4.0892  -4.0825  -4.0505  -4.0503  -3.9903  -3.9902  -3.9580  -3.9322
    -3.9243  -3.9212  -3.9207  -3.8987  -3.8987  -3.8868  -3.8365  -3.8365
    -3.8307  -3.8306  -3.7451  -3.7449  -3.7229  -3.7227  -3.6883  -3.6869
    -3.6712  -3.6470  -3.6470  -3.6026  -3.6025  -3.6001  -3.6000  -3.5752
    -3.5751  -3.4951  -3.4945  -3.4939  -3.4777  -3.4637  -3.4604  -3.4479
    -3.4478  -3.4404  -3.4404  -3.3977  -3.3977  -3.3750  -3.3749  -3.3380
    -3.3379  -3.3117  -3.2907  -3.2907  -3.2444  -3.2444  -3.2119  -3.1842
    -3.1840  -3.1831  -3.1829  -3.1788  -3.1787  -3.1524  -3.1411  -3.1034
    -3.1034  -3.0907  -3.0823  -3.0587  -3.0557  -3.0556  -3.0490  -3.0489
    -3.0447  -3.0447  -3.0095  -3.0085  -3.0085  -3.0030  -3.0030  -2.9980
    -2.9422  -2.9377  -2.9330  -2.9328  -2.9108  -2.9108  -2.9054  -2.8168
    -2.8062  -2.8061  -2.7965  -2.7964  -2.7907  -2.7895  -2.7885  -2.7805
    -2.7805  -2.7698  -2.7625  -2.7590  -2.7589  -2.7546  -2.7443  -2.7395
    -2.7373  -2.7151  -2.7044  -2.7042  -2.6885  -2.6884  -2.6715  -2.6715
    -2.6626  -2.6625  -2.6420  -2.6292  -2.6292  -2.6238  -2.6238  -2.5899
    -2.5875  -2.5875  -2.5297  -2.5257  -2.5111  -2.5111  -2.5003  -2.4962
    -2.4730  -2.4729  -2.4687  -2.4559  -2.4558  -2.4443  -2.4440  -2.4275
    -2.4272  -2.4001  -2.4001  -2.3898  -2.3898  -2.3800  -2.3799  -2.3628
    -2.3497  -2.3291  -2.2604  -2.2585  -2.2394  -2.2394  -2.2274  -2.2274
    -2.1773  -2.1771  -2.1621  -2.1426  -2.1300  -2.1300  -2.1118  -2.0934
    -2.0933  -2.0801  -2.0733  -2.0434  -2.0431  -2.0395  -2.0305  -2.0304
    -2.0249  -2.0248  -2.0069  -1.9953  -1.9873  -1.9872  -1.9867  -1.9867
    -1.9856  -1.9853  -1.9715  -1.9515  -1.9515  -1.9480  -1.9427  -1.9299
    -1.9298  -1.9254  -1.9253  -1.9194  -1.9177  -1.8832  -1.8830  -1.8386
    -1.8193  -1.8193  -1.7735  -1.7734  -1.7733  -1.7626  -1.7624  -1.7486
    -1.7485  -1.7410  -1.7409  -1.7304  -1.7303  -1.7100  -1.7100  -1.6731
    -1.6730  -1.6556  -1.6333  -1.6332  -1.5938  -1.5937  -1.5431  -1.5430
    -1.5221  -1.4985  -1.4957  -1.4952  -1.4907  -1.4886  -1.4694  -1.4693
    -1.4683  -1.4681  -1.4662  -1.4662  -1.4653  -1.4643  -1.4631  -1.4360
    -1.4360  -1.4031  -1.4022  -1.4022  -1.3795  -1.3794  -1.3750  -1.3749
    -1.3718  -1.3613  -1.3336  -1.3334  -1.3091  -1.3076  -1.3076  -1.2875
    -1.2762  -1.2761  -1.2468  -1.2467  -1.2398  -1.2398  -1.2011  -1.2010
    -1.1891  -1.1890  -1.1883  -1.1882  -1.1619  -1.1618  -1.1477  -1.1404
    -1.1403  -1.1285  -1.1283  -1.1265  -1.1264  -1.1154  -1.1054  -1.1043
    -1.0977  -1.0977  -1.0908  -1.0867  -1.0867  -1.0704  -1.0503  -1.0283
    -1.0266  -1.0262  -1.0254  -1.0228  -1.0190  -0.9916  -0.9915  -0.9778
    -0.9602  -0.9599  -0.9517  -0.9516  -0.9433  -0.9372  -0.9339  -0.8985
    -0.8983  -0.8869  -0.8869  -0.8666  -0.8666  -0.8511  -0.8270  -0.8189
    -0.8011  -0.8010  -0.7634  -0.7633  -0.7606  -0.7601  -0.7590  -0.7539
    -0.7523  -0.7522  -0.7476  -0.7456  -0.7125  -0.7124  -0.7111  -0.7110
    -0.7095  -0.7093  -0.6955  -0.6954  -0.6671  -0.4072  -0.3963  -0.3529
    -0.3523  -0.3217  -0.2628  -0.1103  -0.1102  -0.0795   0.2052   0.2053
     0.5459   0.5465   0.5897   0.5897   0.6397   0.6400   0.7993   0.7996
     0.9272   0.9293   1.0427   1.5382   1.5785   1.5863   1.6210   1.6218
     1.7581   1.7602   1.8149   1.8151   1.9975   1.9976   2.2826   2.3094
     2.3100   2.3305   2.7648   2.7667   2.7890   2.7892   2.8055   2.8057
     2.8711   2.8720   3.0279   3.1495   3.1502   3.3389   3.3406   3.4463
     3.5182   3.5184   3.8180   3.8183   3.8750   3.8764   3.8765   4.0233
     4.0238   4.0345   4.0477   4.3190   4.3210   4.3569   4.3572   4.4722
     4.4746   4.5375   4.5396   4.8068   5.1383   5.4193   5.4222   5.5014
     5.5206   5.6276   5.6281   5.6994   5.7001   5.7168   5.7170   5.8198
     5.8292   5.9109   6.0635   6.0851   6.1166   6.1176   6.1294   6.1307
     6.1311   6.1447   6.2987   6.3050   6.3535   6.3909   6.4339   6.4450

          k =-0.2500 0.2500-0.0833 (167653 PWs)   bands (ev):

   -19.0818  -6.9150  -6.8952  -6.3848  -6.3845  -5.9465  -5.5429  -5.4444
    -5.4441  -5.2225  -5.2225  -5.1257  -5.1252  -4.9920  -4.9844  -4.8749
    -4.7867  -4.7822  -4.7612  -4.7611  -4.5802  -4.5789  -4.5787  -4.5526
    -4.5480  -4.5475  -4.5433  -4.4904  -4.4900  -4.4876  -4.4874  -4.4239
    -4.3954  -4.3953  -4.3385  -4.3354  -4.3340  -4.2982  -4.2978  -4.2842
    -4.2793  -4.2607  -4.2607  -4.2241  -4.1914  -4.1910  -4.1878  -4.1852
    -4.1849  -4.1550  -4.1247  -4.1245  -4.0951  -4.0949  -4.0910  -4.0909
    -4.0892  -4.0825  -4.0507  -4.0502  -3.9904  -3.9901  -3.9580  -3.9322
    -3.9243  -3.9212  -3.9207  -3.8987  -3.8987  -3.8868  -3.8365  -3.8365
    -3.8308  -3.8305  -3.7452  -3.7448  -3.7230  -3.7227  -3.6883  -3.6869
    -3.6712  -3.6470  -3.6470  -3.6027  -3.6024  -3.6001  -3.5999  -3.5754
    -3.5750  -3.4951  -3.4945  -3.4939  -3.4777  -3.4637  -3.4604  -3.4479
    -3.4477  -3.4405  -3.4403  -3.3977  -3.3977  -3.3750  -3.3748  -3.3381
    -3.3378  -3.3117  -3.2907  -3.2906  -3.2445  -3.2443  -3.2119  -3.1842
    -3.1841  -3.1831  -3.1829  -3.1788  -3.1787  -3.1524  -3.1411  -3.1034
    -3.1034  -3.0907  -3.0823  -3.0587  -3.0558  -3.0556  -3.0492  -3.0487
    -3.0447  -3.0447  -3.0095  -3.0085  -3.0085  -3.0030  -3.0030  -2.9980
    -2.9422  -2.9377  -2.9331  -2.9328  -2.9108  -2.9107  -2.9054  -2.8168
    -2.8062  -2.8060  -2.7966  -2.7962  -2.7907  -2.7897  -2.7884  -2.7805
    -2.7804  -2.7698  -2.7625  -2.7591  -2.7588  -2.7546  -2.7443  -2.7395
    -2.7373  -2.7151  -2.7045  -2.7041  -2.6885  -2.6884  -2.6715  -2.6715
    -2.6626  -2.6624  -2.6420  -2.6292  -2.6292  -2.6239  -2.6237  -2.5899
    -2.5876  -2.5875  -2.5297  -2.5257  -2.5111  -2.5110  -2.5003  -2.4962
    -2.4730  -2.4729  -2.4687  -2.4560  -2.4557  -2.4444  -2.4439  -2.4276
    -2.4271  -2.4001  -2.4001  -2.3899  -2.3897  -2.3801  -2.3799  -2.3628
    -2.3497  -2.3291  -2.2604  -2.2585  -2.2395  -2.2393  -2.2275  -2.2273
    -2.1775  -2.1769  -2.1621  -2.1426  -2.1300  -2.1299  -2.1118  -2.0934
    -2.0933  -2.0801  -2.0733  -2.0436  -2.0430  -2.0395  -2.0305  -2.0304
    -2.0249  -2.0247  -2.0069  -1.9953  -1.9874  -1.9871  -1.9868  -1.9867
    -1.9858  -1.9852  -1.9715  -1.9515  -1.9514  -1.9480  -1.9427  -1.9300
    -1.9297  -1.9254  -1.9252  -1.9194  -1.9177  -1.8833  -1.8828  -1.8386
    -1.8196  -1.8191  -1.7735  -1.7734  -1.7733  -1.7627  -1.7623  -1.7488
    -1.7483  -1.7411  -1.7407  -1.7305  -1.7302  -1.7100  -1.7099  -1.6731
    -1.6729  -1.6556  -1.6334  -1.6331  -1.5938  -1.5937  -1.5431  -1.5430
    -1.5221  -1.4985  -1.4957  -1.4951  -1.4907  -1.4886  -1.4695  -1.4692
    -1.4685  -1.4680  -1.4664  -1.4661  -1.4653  -1.4643  -1.4631  -1.4360
    -1.4360  -1.4031  -1.4022  -1.4021  -1.3795  -1.3794  -1.3751  -1.3748
    -1.3718  -1.3613  -1.3337  -1.3333  -1.3091  -1.3078  -1.3074  -1.2875
    -1.2763  -1.2760  -1.2469  -1.2466  -1.2399  -1.2397  -1.2012  -1.2009
    -1.1892  -1.1889  -1.1884  -1.1881  -1.1619  -1.1617  -1.1477  -1.1404
    -1.1402  -1.1287  -1.1282  -1.1266  -1.1263  -1.1154  -1.1054  -1.1043
    -1.0978  -1.0976  -1.0908  -1.0868  -1.0867  -1.0704  -1.0503  -1.0283
    -1.0266  -1.0262  -1.0254  -1.0228  -1.0190  -0.9917  -0.9914  -0.9778
    -0.9604  -0.9598  -0.9517  -0.9516  -0.9433  -0.9371  -0.9339  -0.8985
    -0.8982  -0.8869  -0.8869  -0.8667  -0.8665  -0.8511  -0.8270  -0.8189
    -0.8012  -0.8009  -0.7635  -0.7632  -0.7606  -0.7601  -0.7590  -0.7539
    -0.7524  -0.7522  -0.7476  -0.7456  -0.7125  -0.7123  -0.7112  -0.7109
    -0.7096  -0.7091  -0.6956  -0.6953  -0.6671  -0.4072  -0.3963  -0.3534
    -0.3518  -0.3217  -0.2628  -0.1104  -0.1101  -0.0795   0.2052   0.2053
     0.5454   0.5470   0.5897   0.5897   0.6395   0.6402   0.7993   0.7996
     0.9272   0.9293   1.0427   1.5382   1.5785   1.5863   1.6210   1.6218
     1.7570   1.7613   1.8148   1.8152   1.9975   1.9977   2.2826   2.3089
     2.3105   2.3306   2.7638   2.7676   2.7890   2.7893   2.8053   2.8058
     2.8711   2.8720   3.0278   3.1494   3.1505   3.3390   3.3406   3.4463
     3.5182   3.5185   3.8179   3.8184   3.8747   3.8764   3.8768   4.0231
     4.0241   4.0308   4.0511   4.3190   4.3210   4.3562   4.3576   4.4722
     4.4747   4.5364   4.5406   4.8109   5.1357   5.4198   5.4233   5.5072
     5.5089   5.6276   5.6282   5.6993   5.7003   5.7168   5.7171   5.8098
     5.8290   5.9019   6.0250   6.1155   6.1175   6.1249   6.1307   6.1311
     6.1449   6.1829   6.2961   6.3080   6.3510   6.4016   6.4240   6.4486

          k = 0.2500-0.2500-0.0833 (167653 PWs)   bands (ev):

   -19.0818  -6.9150  -6.8952  -6.3848  -6.3845  -5.9465  -5.5429  -5.4444
    -5.4441  -5.2225  -5.2225  -5.1257  -5.1252  -4.9920  -4.9844  -4.8749
    -4.7867  -4.7822  -4.7612  -4.7611  -4.5802  -4.5789  -4.5787  -4.5526
    -4.5480  -4.5475  -4.5433  -4.4904  -4.4900  -4.4876  -4.4874  -4.4239
    -4.3954  -4.3953  -4.3385  -4.3354  -4.3340  -4.2982  -4.2978  -4.2842
    -4.2793  -4.2607  -4.2607  -4.2241  -4.1914  -4.1910  -4.1878  -4.1852
    -4.1849  -4.1550  -4.1247  -4.1245  -4.0951  -4.0949  -4.0910  -4.0909
    -4.0892  -4.0825  -4.0507  -4.0502  -3.9904  -3.9901  -3.9580  -3.9322
    -3.9243  -3.9212  -3.9207  -3.8987  -3.8987  -3.8868  -3.8365  -3.8365
    -3.8308  -3.8305  -3.7452  -3.7448  -3.7230  -3.7227  -3.6883  -3.6869
    -3.6712  -3.6470  -3.6470  -3.6027  -3.6024  -3.6001  -3.5999  -3.5754
    -3.5750  -3.4951  -3.4945  -3.4939  -3.4777  -3.4637  -3.4604  -3.4479
    -3.4477  -3.4405  -3.4403  -3.3977  -3.3977  -3.3750  -3.3748  -3.3381
    -3.3378  -3.3117  -3.2907  -3.2906  -3.2445  -3.2443  -3.2119  -3.1842
    -3.1841  -3.1831  -3.1829  -3.1788  -3.1787  -3.1524  -3.1411  -3.1034
    -3.1034  -3.0907  -3.0823  -3.0587  -3.0558  -3.0556  -3.0492  -3.0487
    -3.0447  -3.0447  -3.0095  -3.0085  -3.0085  -3.0030  -3.0030  -2.9980
    -2.9422  -2.9377  -2.9331  -2.9328  -2.9108  -2.9107  -2.9054  -2.8168
    -2.8062  -2.8060  -2.7966  -2.7962  -2.7907  -2.7897  -2.7884  -2.7805
    -2.7804  -2.7698  -2.7625  -2.7591  -2.7588  -2.7546  -2.7443  -2.7395
    -2.7373  -2.7151  -2.7045  -2.7041  -2.6885  -2.6884  -2.6715  -2.6715
    -2.6626  -2.6624  -2.6420  -2.6292  -2.6292  -2.6239  -2.6237  -2.5899
    -2.5876  -2.5875  -2.5297  -2.5257  -2.5111  -2.5110  -2.5003  -2.4962
    -2.4730  -2.4729  -2.4687  -2.4560  -2.4557  -2.4444  -2.4439  -2.4276
    -2.4271  -2.4001  -2.4001  -2.3899  -2.3897  -2.3801  -2.3799  -2.3628
    -2.3497  -2.3291  -2.2604  -2.2585  -2.2395  -2.2393  -2.2275  -2.2273
    -2.1775  -2.1769  -2.1621  -2.1426  -2.1300  -2.1299  -2.1118  -2.0934
    -2.0933  -2.0801  -2.0733  -2.0436  -2.0430  -2.0395  -2.0305  -2.0304
    -2.0249  -2.0247  -2.0069  -1.9953  -1.9874  -1.9871  -1.9868  -1.9867
    -1.9858  -1.9852  -1.9715  -1.9515  -1.9514  -1.9480  -1.9427  -1.9300
    -1.9297  -1.9254  -1.9252  -1.9194  -1.9177  -1.8833  -1.8828  -1.8386
    -1.8196  -1.8191  -1.7735  -1.7734  -1.7733  -1.7627  -1.7623  -1.7488
    -1.7483  -1.7411  -1.7407  -1.7305  -1.7302  -1.7100  -1.7099  -1.6731
    -1.6729  -1.6556  -1.6334  -1.6331  -1.5938  -1.5937  -1.5431  -1.5430
    -1.5221  -1.4985  -1.4957  -1.4951  -1.4907  -1.4886  -1.4695  -1.4692
    -1.4685  -1.4680  -1.4664  -1.4661  -1.4653  -1.4643  -1.4631  -1.4360
    -1.4360  -1.4031  -1.4022  -1.4021  -1.3795  -1.3794  -1.3751  -1.3748
    -1.3718  -1.3613  -1.3337  -1.3333  -1.3091  -1.3078  -1.3074  -1.2875
    -1.2763  -1.2760  -1.2469  -1.2466  -1.2399  -1.2397  -1.2012  -1.2009
    -1.1892  -1.1889  -1.1884  -1.1881  -1.1619  -1.1617  -1.1477  -1.1404
    -1.1402  -1.1287  -1.1282  -1.1266  -1.1263  -1.1154  -1.1054  -1.1043
    -1.0978  -1.0976  -1.0908  -1.0868  -1.0867  -1.0704  -1.0503  -1.0283
    -1.0266  -1.0262  -1.0254  -1.0228  -1.0190  -0.9917  -0.9914  -0.9778
    -0.9604  -0.9598  -0.9517  -0.9516  -0.9433  -0.9371  -0.9339  -0.8985
    -0.8982  -0.8869  -0.8869  -0.8667  -0.8665  -0.8511  -0.8270  -0.8189
    -0.8012  -0.8009  -0.7635  -0.7632  -0.7606  -0.7601  -0.7590  -0.7539
    -0.7524  -0.7522  -0.7476  -0.7456  -0.7125  -0.7123  -0.7112  -0.7109
    -0.7096  -0.7091  -0.6956  -0.6953  -0.6671  -0.4072  -0.3963  -0.3534
    -0.3518  -0.3217  -0.2628  -0.1104  -0.1101  -0.0795   0.2052   0.2053
     0.5454   0.5470   0.5897   0.5897   0.6395   0.6402   0.7993   0.7996
     0.9272   0.9293   1.0427   1.5382   1.5785   1.5863   1.6210   1.6218
     1.7570   1.7613   1.8148   1.8152   1.9975   1.9977   2.2826   2.3089
     2.3105   2.3306   2.7638   2.7676   2.7890   2.7893   2.8053   2.8058
     2.8711   2.8720   3.0278   3.1494   3.1505   3.3390   3.3406   3.4463
     3.5182   3.5185   3.8179   3.8184   3.8747   3.8764   3.8768   4.0231
     4.0241   4.0308   4.0511   4.3190   4.3210   4.3562   4.3576   4.4722
     4.4747   4.5364   4.5406   4.8109   5.1357   5.4198   5.4233   5.5072
     5.5089   5.6276   5.6282   5.6993   5.7003   5.7168   5.7171   5.8099
     5.8290   5.9025   6.0238   6.1155   6.1175   6.1249   6.1307   6.1311
     6.1449   6.1829   6.2961   6.3080   6.3515   6.4021   6.4240   6.4486

          k =-0.2500 0.2500 0.2500 (167588 PWs)   bands (ev):

   -19.0818  -6.9150  -6.8952  -6.3848  -6.3845  -5.9465  -5.5429  -5.4444
    -5.4441  -5.2225  -5.2225  -5.1257  -5.1252  -4.9920  -4.9844  -4.8749
    -4.7867  -4.7822  -4.7612  -4.7611  -4.5802  -4.5789  -4.5787  -4.5526
    -4.5480  -4.5475  -4.5433  -4.4904  -4.4900  -4.4876  -4.4874  -4.4239
    -4.3954  -4.3953  -4.3385  -4.3354  -4.3340  -4.2982  -4.2978  -4.2842
    -4.2793  -4.2608  -4.2607  -4.2241  -4.1914  -4.1910  -4.1878  -4.1852
    -4.1849  -4.1550  -4.1247  -4.1245  -4.0951  -4.0948  -4.0910  -4.0909
    -4.0892  -4.0825  -4.0507  -4.0502  -3.9904  -3.9901  -3.9580  -3.9322
    -3.9243  -3.9212  -3.9207  -3.8987  -3.8987  -3.8868  -3.8365  -3.8365
    -3.8308  -3.8305  -3.7452  -3.7448  -3.7230  -3.7227  -3.6883  -3.6869
    -3.6712  -3.6470  -3.6470  -3.6027  -3.6024  -3.6001  -3.5999  -3.5754
    -3.5750  -3.4951  -3.4945  -3.4939  -3.4777  -3.4637  -3.4604  -3.4479
    -3.4477  -3.4405  -3.4403  -3.3977  -3.3977  -3.3750  -3.3748  -3.3381
    -3.3378  -3.3117  -3.2907  -3.2906  -3.2445  -3.2443  -3.2119  -3.1842
    -3.1841  -3.1831  -3.1829  -3.1788  -3.1787  -3.1525  -3.1411  -3.1034
    -3.1034  -3.0906  -3.0823  -3.0587  -3.0558  -3.0556  -3.0492  -3.0487
    -3.0447  -3.0447  -3.0095  -3.0085  -3.0085  -3.0030  -3.0030  -2.9980
    -2.9422  -2.9377  -2.9331  -2.9328  -2.9108  -2.9107  -2.9054  -2.8168
    -2.8062  -2.8060  -2.7966  -2.7962  -2.7906  -2.7897  -2.7884  -2.7805
    -2.7804  -2.7698  -2.7625  -2.7591  -2.7588  -2.7546  -2.7443  -2.7395
    -2.7373  -2.7151  -2.7045  -2.7041  -2.6885  -2.6884  -2.6715  -2.6715
    -2.6626  -2.6624  -2.6420  -2.6292  -2.6292  -2.6239  -2.6237  -2.5899
    -2.5876  -2.5875  -2.5297  -2.5257  -2.5111  -2.5110  -2.5003  -2.4962
    -2.4730  -2.4729  -2.4687  -2.4560  -2.4557  -2.4444  -2.4439  -2.4276
    -2.4271  -2.4001  -2.4001  -2.3899  -2.3897  -2.3801  -2.3799  -2.3628
    -2.3497  -2.3291  -2.2604  -2.2585  -2.2395  -2.2393  -2.2275  -2.2274
    -2.1775  -2.1769  -2.1621  -2.1426  -2.1300  -2.1299  -2.1118  -2.0934
    -2.0933  -2.0801  -2.0733  -2.0436  -2.0430  -2.0395  -2.0305  -2.0304
    -2.0249  -2.0247  -2.0069  -1.9953  -1.9874  -1.9871  -1.9868  -1.9867
    -1.9858  -1.9852  -1.9716  -1.9515  -1.9514  -1.9480  -1.9427  -1.9300
    -1.9297  -1.9254  -1.9252  -1.9194  -1.9177  -1.8833  -1.8828  -1.8386
    -1.8196  -1.8191  -1.7735  -1.7734  -1.7733  -1.7627  -1.7623  -1.7488
    -1.7483  -1.7411  -1.7407  -1.7305  -1.7302  -1.7100  -1.7099  -1.6731
    -1.6729  -1.6556  -1.6334  -1.6331  -1.5938  -1.5937  -1.5431  -1.5430
    -1.5221  -1.4985  -1.4957  -1.4951  -1.4907  -1.4886  -1.4695  -1.4692
    -1.4685  -1.4680  -1.4664  -1.4661  -1.4652  -1.4643  -1.4631  -1.4360
    -1.4360  -1.4031  -1.4022  -1.4021  -1.3795  -1.3794  -1.3751  -1.3748
    -1.3718  -1.3613  -1.3337  -1.3333  -1.3091  -1.3078  -1.3074  -1.2875
    -1.2763  -1.2760  -1.2469  -1.2466  -1.2399  -1.2397  -1.2012  -1.2009
    -1.1892  -1.1889  -1.1884  -1.1881  -1.1619  -1.1617  -1.1477  -1.1404
    -1.1402  -1.1287  -1.1282  -1.1266  -1.1263  -1.1154  -1.1054  -1.1043
    -1.0978  -1.0976  -1.0908  -1.0868  -1.0867  -1.0704  -1.0503  -1.0283
    -1.0266  -1.0262  -1.0254  -1.0228  -1.0190  -0.9917  -0.9914  -0.9778
    -0.9603  -0.9597  -0.9517  -0.9516  -0.9433  -0.9371  -0.9339  -0.8985
    -0.8982  -0.8869  -0.8869  -0.8667  -0.8665  -0.8511  -0.8270  -0.8189
    -0.8012  -0.8009  -0.7634  -0.7632  -0.7606  -0.7601  -0.7590  -0.7540
    -0.7524  -0.7522  -0.7476  -0.7456  -0.7125  -0.7123  -0.7112  -0.7109
    -0.7096  -0.7091  -0.6956  -0.6953  -0.6671  -0.4072  -0.3963  -0.3533
    -0.3518  -0.3217  -0.2627  -0.1104  -0.1101  -0.0795   0.2052   0.2053
     0.5454   0.5470   0.5897   0.5897   0.6395   0.6402   0.7993   0.7996
     0.9272   0.9293   1.0427   1.5382   1.5785   1.5863   1.6210   1.6218
     1.7570   1.7613   1.8148   1.8152   1.9975   1.9977   2.2826   2.3089
     2.3105   2.3306   2.7638   2.7676   2.7890   2.7893   2.8053   2.8058
     2.8711   2.8720   3.0278   3.1494   3.1505   3.3390   3.3406   3.4463
     3.5182   3.5185   3.8179   3.8184   3.8747   3.8764   3.8768   4.0231
     4.0241   4.0309   4.0511   4.3190   4.3210   4.3562   4.3576   4.4722
     4.4747   4.5364   4.5406   4.8110   5.1332   5.4198   5.4232   5.5069
     5.5087   5.6276   5.6282   5.6991   5.7003   5.7168   5.7171   5.8024
     5.8289   5.8797   6.1146   6.1175   6.1199   6.1248   6.1309   6.1311
     6.1438   6.1449   6.2995   6.3076   6.3867   6.4227   6.4340   6.4464

     the Fermi energy is     0.8712 ev

!    total energy              =   -7379.97843647 Ry
     Harris-Foulkes estimate   =   -7379.97843647 Ry
     estimated scf accuracy    <          1.8E-09 Ry

     The total energy is the sum of the following terms:

     one-electron contribution =  -48184.43825246 Ry
     hartree contribution      =   24639.49803050 Ry
     xc contribution           =   -3556.23774568 Ry
     ewald contribution        =   19721.19850383 Ry
     smearing contrib. (-TS)   =       0.00102735 Ry

     convergence has been achieved in  28 iterations

     Writing output data file 9088342.save

     init_run     :    124.04s CPU    129.02s WALL (       1 calls)
     electrons    :   8214.69s CPU   8487.30s WALL (       1 calls)

     Called by init_run:
     wfcinit      :     92.97s CPU     97.63s WALL (       1 calls)
     potinit      :      3.61s CPU      3.68s WALL (       1 calls)

     Called by electrons:
     c_bands      :   6836.64s CPU   7055.85s WALL (      29 calls)
     sum_band     :    977.30s CPU   1025.64s WALL (      29 calls)
     v_of_rho     :     18.64s CPU     19.93s WALL (      29 calls)
     newd         :    393.28s CPU    396.46s WALL (      29 calls)
     mix_rho      :      3.57s CPU      3.87s WALL (      29 calls)

     Called by c_bands:
     init_us_2    :      8.24s CPU      8.48s WALL (     354 calls)
     cegterg      :   6433.75s CPU   6651.22s WALL (     174 calls)

     Called by *egterg:
     h_psi        :   2573.12s CPU   2761.30s WALL (     932 calls)
     s_psi        :    354.68s CPU    356.23s WALL (     932 calls)
     g_psi        :      4.54s CPU      4.56s WALL (     752 calls)
     cdiaghg      :   1614.90s CPU   1619.44s WALL (     920 calls)

     Called by h_psi:
     add_vuspsi   :    354.42s CPU    356.00s WALL (     932 calls)

     General routines
     calbec       :    715.12s CPU    717.26s WALL (    1106 calls)
     fft          :    143.32s CPU    145.82s WALL (     464 calls)
     ffts         :      1.93s CPU      2.12s WALL (      58 calls)
     fftw         :   2005.76s CPU   2224.46s WALL (  463504 calls)
     interpolate  :      4.94s CPU      5.47s WALL (      58 calls)
     davcio       :      0.00s CPU      0.10s WALL (       6 calls)

     Parallel routines
     fft_scatter  :   1600.52s CPU   1787.49s WALL (  464026 calls)

     PWSCF        :     2h19m CPU        2h23m WALL


   This run was terminated on:  20:25:53   7Aug2015            

=------------------------------------------------------------------------------=
   JOB DONE.
=------------------------------------------------------------------------------=
