
     Program PWSCF v.5.1.2 starts on 10Aug2015 at 14:37: 0 

     This program is part of the open-source Quantum ESPRESSO suite
     for quantum simulation of materials; please cite
         "P. Giannozzi et al., J. Phys.:Condens. Matter 21 395502 (2009);
          URL http://www.quantum-espresso.org", 
     in publications or presentations arising from this work. More details at
     http://www.quantum-espresso.org/quote

     Parallel version (MPI), running on    32 processors
     R & G space division:  proc/nbgrp/npool/nimage =      32
     Reading input from top.O1.Au5859.d.2.5.phi.0.psi.180.in
Warning: card &IONS ignored
Warning: card / ignored
Warning: card &CELL ignored
Warning: card / ignored

     Current dimensions of program PWSCF are:
     Max number of different atomic species (ntypx) = 10
     Max number of k-points (npk) =  40000
     Max angular momentum in pseudopotentials (lmaxx) =  3

     Subspace diagonalization in iterative solution of the eigenvalue problem:
     a serial algorithm will be used


     Parallelization info
     --------------------
     sticks:   dense  smooth     PW     G-vecs:    dense   smooth      PW
     Min         578     289     74               118518    41891    5486
     Max         579     290     75               118533    41932    5497
     Sum       18505    9265   2385              3792731  1341081  175711


     Title: 
     top.O1.Au5859.d.2.5.phi.0.psi.180                                          


     bravais-lattice index     =            8
     lattice parameter (alat)  =      24.1233  a.u.
     unit-cell volume          =   28076.2361 (a.u.)^3
     number of atoms/cell      =           75
     number of atomic types    =            3
     number of electrons       =       800.00
     number of Kohn-Sham states=          480
     kinetic-energy cutoff     =      50.0000  Ry
     charge density cutoff     =     400.0000  Ry
     convergence threshold     =      1.0E-08
     mixing beta               =       0.7000
     number of iterations used =            8  plain     mixing
     Exchange-correlation      =  SLA  PW   PBE  PBE ( 1  4  3  4 0 0)

     celldm(1)=  24.123277  celldm(2)=   1.000000  celldm(3)=   2.000000
     celldm(4)=   0.000000  celldm(5)=   0.000000  celldm(6)=   0.000000

     crystal axes: (cart. coord. in units of alat)
               a(1) = (   1.000000   0.000000   0.000000 )  
               a(2) = (   0.000000   1.000000   0.000000 )  
               a(3) = (   0.000000   0.000000   2.000000 )  

     reciprocal axes: (cart. coord. in units 2 pi/alat)
               b(1) = (  1.000000  0.000000  0.000000 )  
               b(2) = (  0.000000  1.000000  0.000000 )  
               b(3) = (  0.000000  0.000000  0.500000 )  


     PseudoPot. # 1 for Au read from file:
     /home/scc/andrejb/qe/pseudo/Au.pbe-nd-van.UPF
     MD5 check sum: 458681b50f36d87ef23c61b04bba420a
     Pseudo is Ultrasoft + core correction, Zval = 11.0
     Generated by new atomic code, or converted to UPF format
     Using radial grid of  985 points,  3 beta functions with: 
                l(1) =   1
                l(2) =   2
                l(3) =   2
     Q(r) pseudized with  8 coefficients,  rinner =    1.100   1.100   1.100
                                                       1.100   1.100

     PseudoPot. # 2 for H  read from file:
     /home/scc/andrejb/qe/pseudo/H.pbe-van_ak.UPF
     MD5 check sum: 403db7282739603aa925980fa9b8608d
     Pseudo is Ultrasoft, Zval =  1.0
     Generated by new atomic code, or converted to UPF format
     Using radial grid of  615 points,  1 beta functions with: 
                l(1) =   0
     Q(r) pseudized with  8 coefficients,  rinner =    0.800

     PseudoPot. # 3 for O  read from file:
     /home/scc/andrejb/qe/pseudo/O.pbe-van_ak.UPF
     MD5 check sum: 4b8c549914a63cae506c6ff22b5af4fe
     Pseudo is Ultrasoft, Zval =  6.0
     Generated by new atomic code, or converted to UPF format
     Using radial grid of  737 points,  4 beta functions with: 
                l(1) =   0
                l(2) =   0
                l(3) =   1
                l(4) =   1
     Q(r) pseudized with  8 coefficients,  rinner =    0.800   0.800   0.800


     atomic species   valence    mass     pseudopotential
        Au            11.00   196.96657     Au( 1.00)
        H              1.00     1.01000     H ( 1.00)
        O              6.00    16.00000     O ( 1.00)

     No symmetry found



   Cartesian axes

     site n.     atom                  positions (alat units)
         1           O   tau(   1) = (   0.1666051   0.1666105   0.6951546  )
         2           H   tau(   2) = (   0.1195275   0.2057820   0.6496606  )
         3           H   tau(   3) = (   0.2122554   0.1286088   0.6472969  )
         4           Au  tau(   4) = (   0.0000000   0.0000000   0.0000000  )
         5           Au  tau(   5) = (   0.3332217   0.0000000   0.0000000  )
         6           Au  tau(   6) = (   0.6664434   0.0000000   0.0000000  )
         7           Au  tau(   7) = (   0.1666109   0.1666109   0.0000000  )
         8           Au  tau(   8) = (   0.4998326   0.1666109   0.0000000  )
         9           Au  tau(   9) = (   0.8330542   0.1666109   0.0000000  )
        10           Au  tau(  10) = (   0.0000000   0.3332217   0.0000000  )
        11           Au  tau(  11) = (   0.3332217   0.3332217   0.0000000  )
        12           Au  tau(  12) = (   0.6664434   0.3332217   0.0000000  )
        13           Au  tau(  13) = (   0.1666109   0.4998326   0.0000000  )
        14           Au  tau(  14) = (   0.4998326   0.4998326   0.0000000  )
        15           Au  tau(  15) = (   0.8330542   0.4998326   0.0000000  )
        16           Au  tau(  16) = (   0.0000000   0.6664434   0.0000000  )
        17           Au  tau(  17) = (   0.3332217   0.6664434   0.0000000  )
        18           Au  tau(  18) = (   0.6664434   0.6664434   0.0000000  )
        19           Au  tau(  19) = (   0.1666109   0.8330542   0.0000000  )
        20           Au  tau(  20) = (   0.4998326   0.8330542   0.0000000  )
        21           Au  tau(  21) = (   0.8330542   0.8330542   0.0000000  )
        22           Au  tau(  22) = (   0.1666109   0.0000000   0.1666109  )
        23           Au  tau(  23) = (   0.4998326   0.0000000   0.1666109  )
        24           Au  tau(  24) = (   0.8330542   0.0000000   0.1666109  )
        25           Au  tau(  25) = (   0.0000000   0.1666109   0.1666109  )
        26           Au  tau(  26) = (   0.3332217   0.1666109   0.1666109  )
        27           Au  tau(  27) = (   0.6664434   0.1666109   0.1666109  )
        28           Au  tau(  28) = (   0.1666109   0.3332217   0.1666109  )
        29           Au  tau(  29) = (   0.4998326   0.3332217   0.1666109  )
        30           Au  tau(  30) = (   0.8330542   0.3332217   0.1666109  )
        31           Au  tau(  31) = (   0.0000000   0.4998326   0.1666109  )
        32           Au  tau(  32) = (   0.3332217   0.4998326   0.1666109  )
        33           Au  tau(  33) = (   0.6664434   0.4998326   0.1666109  )
        34           Au  tau(  34) = (   0.1666109   0.6664434   0.1666109  )
        35           Au  tau(  35) = (   0.4998326   0.6664434   0.1666109  )
        36           Au  tau(  36) = (   0.8330542   0.6664434   0.1666109  )
        37           Au  tau(  37) = (   0.0000000   0.8330542   0.1666109  )
        38           Au  tau(  38) = (   0.3332217   0.8330542   0.1666109  )
        39           Au  tau(  39) = (   0.6664434   0.8330542   0.1666109  )
        40           Au  tau(  40) = (  -0.0000182  -0.0000182   0.3335478  )
        41           Au  tau(  41) = (   0.3332215  -0.0000181   0.3335473  )
        42           Au  tau(  42) = (   0.6664447  -0.0000183   0.3335481  )
        43           Au  tau(  43) = (  -0.0000181   0.3332215   0.3335473  )
        44           Au  tau(  44) = (   0.3332215   0.3332215   0.3335468  )
        45           Au  tau(  45) = (   0.6664445   0.3332215   0.3335477  )
        46           Au  tau(  46) = (  -0.0000183   0.6664447   0.3335481  )
        47           Au  tau(  47) = (   0.3332215   0.6664445   0.3335477  )
        48           Au  tau(  48) = (   0.6664446   0.6664446   0.3335486  )
        49           Au  tau(  49) = (   0.1666097   0.1666097   0.3335483  )
        50           Au  tau(  50) = (   0.4998320   0.1666098   0.3335477  )
        51           Au  tau(  51) = (   0.8330732   0.1666096   0.3335480  )
        52           Au  tau(  52) = (   0.1666098   0.4998320   0.3335477  )
        53           Au  tau(  53) = (   0.4998322   0.4998322   0.3335470  )
        54           Au  tau(  54) = (   0.8330731   0.4998322   0.3335474  )
        55           Au  tau(  55) = (   0.1666096   0.8330732   0.3335480  )
        56           Au  tau(  56) = (   0.4998322   0.8330731   0.3335474  )
        57           Au  tau(  57) = (   0.8330731   0.8330731   0.3335478  )
        58           Au  tau(  58) = (   0.1666104  -0.0000111   0.4993095  )
        59           Au  tau(  59) = (   0.4998323  -0.0000112   0.4993099  )
        60           Au  tau(  60) = (   0.8330660  -0.0000111   0.4993009  )
        61           Au  tau(  61) = (  -0.0000111   0.1666104   0.4993095  )
        62           Au  tau(  62) = (   0.3332213   0.1666106   0.4993185  )
        63           Au  tau(  63) = (   0.6664437   0.1666106   0.4993187  )
        64           Au  tau(  64) = (   0.1666106   0.3332213   0.4993185  )
        65           Au  tau(  65) = (   0.4998324   0.3332216   0.4993185  )
        66           Au  tau(  66) = (   0.8330658   0.3332215   0.4993102  )
        67           Au  tau(  67) = (  -0.0000112   0.4998323   0.4993099  )
        68           Au  tau(  68) = (   0.3332216   0.4998324   0.4993185  )
        69           Au  tau(  69) = (   0.6664437   0.4998325   0.4993187  )
        70           Au  tau(  70) = (   0.1666106   0.6664437   0.4993187  )
        71           Au  tau(  71) = (   0.4998325   0.6664437   0.4993187  )
        72           Au  tau(  72) = (   0.8330658   0.6664438   0.4993102  )
        73           Au  tau(  73) = (  -0.0000111   0.8330660   0.4993009  )
        74           Au  tau(  74) = (   0.3332215   0.8330658   0.4993102  )
        75           Au  tau(  75) = (   0.6664438   0.8330658   0.4993102  )

     number of k points=     6  Marzari-Vanderbilt smearing, width (Ry)=  0.0200
                       cart. coord. in units 2pi/alat
        k(    1) = (   0.2500000   0.2500000   0.0833333), wk =   0.3333333
        k(    2) = (   0.2500000   0.2500000  -0.2500000), wk =   0.3333333
        k(    3) = (  -0.2500000  -0.2500000   0.0833333), wk =   0.3333333
        k(    4) = (  -0.2500000   0.2500000  -0.0833333), wk =   0.3333333
        k(    5) = (   0.2500000  -0.2500000  -0.0833333), wk =   0.3333333
        k(    6) = (  -0.2500000   0.2500000   0.2500000), wk =   0.3333333

     Dense  grid:  3792731 G-vectors     FFT dimensions: ( 160, 160, 320)

     Smooth grid:  1341081 G-vectors     FFT dimensions: ( 120, 120, 225)

     Largest allocated arrays     est. size (Mb)     dimensions
        Kohn-Sham Wavefunctions        38.58 Mb     (    5267,  480)
        NL pseudopotentials            76.03 Mb     (    5267,  946)
        Each V/rho on FFT grid          3.91 Mb     (  256000)
        Each G-vector array             0.90 Mb     (  118520)
        G-vector shells                 0.08 Mb     (   10286)
     Largest temporary arrays     est. size (Mb)     dimensions
        Auxiliary wavefunctions       154.31 Mb     (    5267, 1920)
        Each subspace H/S matrix       56.25 Mb     (    1920, 1920)
        Each <psi_i|beta_j> matrix      6.93 Mb     (     946,  480)
        Arrays for rho mixing          31.25 Mb     (  256000,    8)

     Initial potential from superposition of free atoms
     Check: negative starting charge=   -1.945261

     starting charge  799.16392, renormalised to  800.00000

     negative rho (up, down):  1.947E+00 0.000E+00
     Starting wfc are  654 randomized atomic wfcs

     total cpu time spent up to now is      101.6 secs

     Self-consistent Calculation

     iteration #  1     ecut=    50.00 Ry     beta=0.70
     Davidson diagonalization with overlap
     ethr =  1.00E-02,  avg # of iterations =  3.0

     Threshold (ethr) on eigenvalues was too large:
     Diagonalizing with lowered threshold

     Davidson diagonalization with overlap
     ethr =  4.75E-04,  avg # of iterations =  2.0

     negative rho (up, down):  1.932E+00 0.000E+00

     total cpu time spent up to now is      484.4 secs

     total energy              =   -7377.51488371 Ry
     Harris-Foulkes estimate   =   -7380.91147888 Ry
     estimated scf accuracy    <       4.32290886 Ry

     iteration #  2     ecut=    50.00 Ry     beta=0.70
     Davidson diagonalization with overlap
     ethr =  5.40E-04,  avg # of iterations = 11.3

     negative rho (up, down):  1.930E+00 0.000E+00

     total cpu time spent up to now is     1043.6 secs

     total energy              =   -7369.59064655 Ry
     Harris-Foulkes estimate   =   -7387.50177865 Ry
     estimated scf accuracy    <      90.55782743 Ry

     iteration #  3     ecut=    50.00 Ry     beta=0.70
     Davidson diagonalization with overlap
     ethr =  5.40E-04,  avg # of iterations =  6.0

     negative rho (up, down):  1.946E+00 0.000E+00

     total cpu time spent up to now is     1411.9 secs

     total energy              =   -7378.65375089 Ry
     Harris-Foulkes estimate   =   -7380.71294772 Ry
     estimated scf accuracy    <       8.04636640 Ry

     iteration #  4     ecut=    50.00 Ry     beta=0.70
     Davidson diagonalization with overlap
     ethr =  5.40E-04,  avg # of iterations =  4.3

     negative rho (up, down):  1.952E+00 0.000E+00

     total cpu time spent up to now is     1618.2 secs

     total energy              =   -7379.49513726 Ry
     Harris-Foulkes estimate   =   -7380.39728659 Ry
     estimated scf accuracy    <       4.09315741 Ry

     iteration #  5     ecut=    50.00 Ry     beta=0.70
     Davidson diagonalization with overlap
     ethr =  5.12E-04,  avg # of iterations =  5.3

     negative rho (up, down):  1.959E+00 0.000E+00

     total cpu time spent up to now is     1836.8 secs

     total energy              =   -7379.60378848 Ry
     Harris-Foulkes estimate   =   -7380.39797753 Ry
     estimated scf accuracy    <       6.41021969 Ry

     iteration #  6     ecut=    50.00 Ry     beta=0.70
     Davidson diagonalization with overlap
     ethr =  5.12E-04,  avg # of iterations =  3.0

     negative rho (up, down):  1.962E+00 0.000E+00

     total cpu time spent up to now is     2026.5 secs

     total energy              =   -7379.94639803 Ry
     Harris-Foulkes estimate   =   -7380.03181748 Ry
     estimated scf accuracy    <       0.35136160 Ry

     iteration #  7     ecut=    50.00 Ry     beta=0.70
     Davidson diagonalization with overlap
     ethr =  4.39E-05,  avg # of iterations =  4.5

     negative rho (up, down):  1.966E+00 0.000E+00

     total cpu time spent up to now is     2241.8 secs

     total energy              =   -7379.96451701 Ry
     Harris-Foulkes estimate   =   -7380.01670674 Ry
     estimated scf accuracy    <       0.28695782 Ry

     iteration #  8     ecut=    50.00 Ry     beta=0.70
     Davidson diagonalization with overlap
     ethr =  3.59E-05,  avg # of iterations =  3.3

     negative rho (up, down):  1.968E+00 0.000E+00

     total cpu time spent up to now is     2437.5 secs

     total energy              =   -7379.97306633 Ry
     Harris-Foulkes estimate   =   -7379.99662638 Ry
     estimated scf accuracy    <       0.10405258 Ry

     iteration #  9     ecut=    50.00 Ry     beta=0.70
     Davidson diagonalization with overlap
     ethr =  1.30E-05,  avg # of iterations =  6.3

     negative rho (up, down):  1.969E+00 0.000E+00

     total cpu time spent up to now is     2679.3 secs

     total energy              =   -7379.97406146 Ry
     Harris-Foulkes estimate   =   -7379.98593212 Ry
     estimated scf accuracy    <       0.04015879 Ry

     iteration # 10     ecut=    50.00 Ry     beta=0.70
     Davidson diagonalization with overlap
     ethr =  5.02E-06,  avg # of iterations = 11.5

     negative rho (up, down):  1.969E+00 0.000E+00

     total cpu time spent up to now is     2962.7 secs

     total energy              =   -7379.97603526 Ry
     Harris-Foulkes estimate   =   -7379.97946333 Ry
     estimated scf accuracy    <       0.00924269 Ry

     iteration # 11     ecut=    50.00 Ry     beta=0.70
     Davidson diagonalization with overlap
     c_bands:  3 eigenvalues not converged
     ethr =  1.16E-06,  avg # of iterations =  8.8

     negative rho (up, down):  1.970E+00 0.000E+00

     total cpu time spent up to now is     3224.2 secs

     total energy              =   -7379.97677771 Ry
     Harris-Foulkes estimate   =   -7379.97811579 Ry
     estimated scf accuracy    <       0.00375768 Ry

     iteration # 12     ecut=    50.00 Ry     beta=0.70
     Davidson diagonalization with overlap
     ethr =  4.70E-07,  avg # of iterations =  3.0

     negative rho (up, down):  1.970E+00 0.000E+00

     total cpu time spent up to now is     3421.0 secs

     total energy              =   -7379.97699494 Ry
     Harris-Foulkes estimate   =   -7379.97755151 Ry
     estimated scf accuracy    <       0.00137542 Ry

     iteration # 13     ecut=    50.00 Ry     beta=0.70
     Davidson diagonalization with overlap
     ethr =  1.72E-07,  avg # of iterations =  4.0

     negative rho (up, down):  1.970E+00 0.000E+00

     total cpu time spent up to now is     3678.9 secs

     total energy              =   -7379.97671758 Ry
     Harris-Foulkes estimate   =   -7379.97800059 Ry
     estimated scf accuracy    <       0.00654608 Ry

     iteration # 14     ecut=    50.00 Ry     beta=0.70
     Davidson diagonalization with overlap
     ethr =  1.72E-07,  avg # of iterations =  2.0

     negative rho (up, down):  1.970E+00 0.000E+00

     total cpu time spent up to now is     3895.5 secs

     total energy              =   -7379.97728638 Ry
     Harris-Foulkes estimate   =   -7379.97737556 Ry
     estimated scf accuracy    <       0.00024917 Ry

     iteration # 15     ecut=    50.00 Ry     beta=0.70
     Davidson diagonalization with overlap
     ethr =  3.11E-08,  avg # of iterations =  2.8

     negative rho (up, down):  1.970E+00 0.000E+00

     total cpu time spent up to now is     4127.0 secs

     total energy              =   -7379.97716633 Ry
     Harris-Foulkes estimate   =   -7379.97750171 Ry
     estimated scf accuracy    <       0.00230379 Ry

     iteration # 16     ecut=    50.00 Ry     beta=0.70
     Davidson diagonalization with overlap
     ethr =  3.11E-08,  avg # of iterations =  2.0

     negative rho (up, down):  1.970E+00 0.000E+00

     total cpu time spent up to now is     4334.8 secs

     total energy              =   -7379.97724025 Ry
     Harris-Foulkes estimate   =   -7379.97746897 Ry
     estimated scf accuracy    <       0.00173050 Ry

     iteration # 17     ecut=    50.00 Ry     beta=0.70
     Davidson diagonalization with overlap
     ethr =  3.11E-08,  avg # of iterations =  2.0

     negative rho (up, down):  1.970E+00 0.000E+00

     total cpu time spent up to now is     4535.8 secs

     total energy              =   -7379.97734190 Ry
     Harris-Foulkes estimate   =   -7379.97736119 Ry
     estimated scf accuracy    <       0.00008632 Ry

     iteration # 18     ecut=    50.00 Ry     beta=0.70
     Davidson diagonalization with overlap
     ethr =  1.08E-08,  avg # of iterations =  2.0

     negative rho (up, down):  1.970E+00 0.000E+00

     total cpu time spent up to now is     4727.5 secs

     total energy              =   -7379.97735167 Ry
     Harris-Foulkes estimate   =   -7379.97735425 Ry
     estimated scf accuracy    <       0.00001077 Ry

     iteration # 19     ecut=    50.00 Ry     beta=0.70
     Davidson diagonalization with overlap
     ethr =  1.35E-09,  avg # of iterations =  2.0

     negative rho (up, down):  1.970E+00 0.000E+00

     total cpu time spent up to now is     4914.3 secs

     total energy              =   -7379.97735293 Ry
     Harris-Foulkes estimate   =   -7379.97735360 Ry
     estimated scf accuracy    <       0.00000161 Ry

     iteration # 20     ecut=    50.00 Ry     beta=0.70
     Davidson diagonalization with overlap
     ethr =  2.01E-10,  avg # of iterations =  3.0

     negative rho (up, down):  1.970E+00 0.000E+00

     total cpu time spent up to now is     5144.2 secs

     total energy              =   -7379.97735320 Ry
     Harris-Foulkes estimate   =   -7379.97735347 Ry
     estimated scf accuracy    <       0.00000077 Ry

     iteration # 21     ecut=    50.00 Ry     beta=0.70
     Davidson diagonalization with overlap
     ethr =  9.67E-11,  avg # of iterations =  2.0

     negative rho (up, down):  1.970E+00 0.000E+00

     total cpu time spent up to now is     5349.0 secs

     total energy              =   -7379.97735325 Ry
     Harris-Foulkes estimate   =   -7379.97735342 Ry
     estimated scf accuracy    <       0.00000058 Ry

     iteration # 22     ecut=    50.00 Ry     beta=0.70
     Davidson diagonalization with overlap
     ethr =  7.31E-11,  avg # of iterations =  2.0

     negative rho (up, down):  1.970E+00 0.000E+00

     total cpu time spent up to now is     5539.5 secs

     total energy              =   -7379.97735331 Ry
     Harris-Foulkes estimate   =   -7379.97735338 Ry
     estimated scf accuracy    <       0.00000024 Ry

     iteration # 23     ecut=    50.00 Ry     beta=0.70
     Davidson diagonalization with overlap
     ethr =  2.95E-11,  avg # of iterations =  2.0

     negative rho (up, down):  1.970E+00 0.000E+00

     total cpu time spent up to now is     5730.5 secs

     total energy              =   -7379.97735332 Ry
     Harris-Foulkes estimate   =   -7379.97735337 Ry
     estimated scf accuracy    <       0.00000024 Ry

     iteration # 24     ecut=    50.00 Ry     beta=0.70
     Davidson diagonalization with overlap
     ethr =  2.95E-11,  avg # of iterations =  2.0

     negative rho (up, down):  1.970E+00 0.000E+00

     total cpu time spent up to now is     5911.9 secs

     total energy              =   -7379.97735334 Ry
     Harris-Foulkes estimate   =   -7379.97735336 Ry
     estimated scf accuracy    <       0.00000006 Ry

     iteration # 25     ecut=    50.00 Ry     beta=0.70
     Davidson diagonalization with overlap
     ethr =  8.12E-12,  avg # of iterations =  2.0

     negative rho (up, down):  1.970E+00 0.000E+00

     total cpu time spent up to now is     6102.3 secs

     total energy              =   -7379.97735335 Ry
     Harris-Foulkes estimate   =   -7379.97735336 Ry
     estimated scf accuracy    <       0.00000004 Ry

     iteration # 26     ecut=    50.00 Ry     beta=0.70
     Davidson diagonalization with overlap
     ethr =  5.51E-12,  avg # of iterations =  2.0

     negative rho (up, down):  1.970E+00 0.000E+00

     total cpu time spent up to now is     6290.4 secs

     End of self-consistent calculation

          k = 0.2500 0.2500 0.0833 (167653 PWs)   bands (ev):

   -19.1903  -7.1264  -6.9353  -6.4068  -6.4012  -5.9664  -5.5705  -5.4657
    -5.4624  -5.2423  -5.2401  -5.1600  -5.1425  -5.0145  -5.0038  -4.8944
    -4.8061  -4.8008  -4.7822  -4.7797  -4.6077  -4.5990  -4.5972  -4.5720
    -4.5697  -4.5658  -4.5622  -4.5198  -4.5086  -4.5077  -4.5059  -4.4439
    -4.4163  -4.4146  -4.3812  -4.3546  -4.3533  -4.3270  -4.3168  -4.3037
    -4.2984  -4.2802  -4.2796  -4.2527  -4.2122  -4.2108  -4.2098  -4.2049
    -4.2039  -4.1782  -4.1577  -4.1475  -4.1155  -4.1133  -4.1120  -4.1115
    -4.1080  -4.1016  -4.0944  -4.0696  -4.0129  -4.0088  -3.9831  -3.9550
    -3.9513  -3.9415  -3.9412  -3.9181  -3.9175  -3.9086  -3.8588  -3.8563
    -3.8552  -3.8493  -3.7983  -3.7633  -3.7551  -3.7413  -3.7293  -3.7073
    -3.6895  -3.6672  -3.6658  -3.6253  -3.6223  -3.6207  -3.6205  -3.6099
    -3.5939  -3.5720  -3.5143  -3.5133  -3.5037  -3.4959  -3.4816  -3.4745
    -3.4689  -3.4669  -3.4610  -3.4604  -3.4168  -3.4166  -3.3955  -3.3803
    -3.3575  -3.3393  -3.3269  -3.3105  -3.2984  -3.2664  -3.2637  -3.2285
    -3.2034  -3.2024  -3.2017  -3.1995  -3.1975  -3.1889  -3.1599  -3.1563
    -3.1254  -3.1242  -3.1038  -3.0789  -3.0766  -3.0751  -3.0698  -3.0678
    -3.0650  -3.0646  -3.0319  -3.0293  -3.0277  -3.0223  -3.0191  -3.0129
    -2.9621  -2.9603  -2.9556  -2.9516  -2.9307  -2.9297  -2.9233  -2.8344
    -2.8289  -2.8261  -2.8225  -2.8160  -2.8106  -2.8099  -2.8086  -2.8003
    -2.7986  -2.7903  -2.7813  -2.7777  -2.7735  -2.7728  -2.7645  -2.7577
    -2.7562  -2.7364  -2.7240  -2.7231  -2.7097  -2.7085  -2.6920  -2.6860
    -2.6826  -2.6814  -2.6609  -2.6507  -2.6472  -2.6438  -2.6386  -2.6089
    -2.6071  -2.5986  -2.5512  -2.5440  -2.5332  -2.5320  -2.5187  -2.5170
    -2.4966  -2.4918  -2.4880  -2.4808  -2.4765  -2.4644  -2.4634  -2.4523
    -2.4471  -2.4229  -2.4208  -2.4117  -2.4113  -2.4028  -2.4001  -2.3863
    -2.3658  -2.3445  -2.2853  -2.2841  -2.2622  -2.2589  -2.2490  -2.2422
    -2.1972  -2.1969  -2.1778  -2.1640  -2.1529  -2.1490  -2.1317  -2.1158
    -2.1116  -2.1021  -2.0971  -2.0821  -2.0742  -2.0575  -2.0494  -2.0485
    -2.0451  -2.0419  -2.0399  -2.0148  -2.0128  -2.0116  -2.0089  -2.0076
    -2.0043  -2.0020  -1.9913  -1.9728  -1.9689  -1.9685  -1.9602  -1.9516
    -1.9483  -1.9479  -1.9445  -1.9401  -1.9392  -1.9017  -1.9001  -1.8600
    -1.8433  -1.8391  -1.8047  -1.7953  -1.7944  -1.7936  -1.7821  -1.7736
    -1.7684  -1.7653  -1.7613  -1.7505  -1.7421  -1.7341  -1.7301  -1.6952
    -1.6928  -1.6746  -1.6564  -1.6556  -1.6194  -1.6192  -1.5785  -1.5646
    -1.5598  -1.5375  -1.5237  -1.5161  -1.5156  -1.5141  -1.5061  -1.4945
    -1.4920  -1.4901  -1.4869  -1.4865  -1.4853  -1.4847  -1.4800  -1.4582
    -1.4536  -1.4474  -1.4269  -1.4238  -1.4074  -1.4025  -1.3969  -1.3958
    -1.3930  -1.3841  -1.3628  -1.3557  -1.3355  -1.3274  -1.3254  -1.3113
    -1.3025  -1.3005  -1.2727  -1.2695  -1.2632  -1.2618  -1.2542  -1.2263
    -1.2174  -1.2113  -1.2085  -1.2074  -1.1903  -1.1847  -1.1788  -1.1698
    -1.1643  -1.1554  -1.1521  -1.1469  -1.1459  -1.1369  -1.1319  -1.1271
    -1.1191  -1.1182  -1.1137  -1.1092  -1.1046  -1.0918  -1.0600  -1.0534
    -1.0486  -1.0440  -1.0437  -1.0399  -1.0301  -1.0114  -1.0004  -0.9819
    -0.9786  -0.9783  -0.9708  -0.9635  -0.9580  -0.9545  -0.9463  -0.9189
    -0.9068  -0.9063  -0.8957  -0.8884  -0.8862  -0.8717  -0.8485  -0.8389
    -0.8245  -0.8204  -0.7851  -0.7832  -0.7822  -0.7775  -0.7750  -0.7745
    -0.7722  -0.7712  -0.7657  -0.7653  -0.7356  -0.7323  -0.7307  -0.7276
    -0.7270  -0.7175  -0.7149  -0.6962  -0.6872  -0.4352  -0.4140  -0.3697
    -0.3598  -0.3409  -0.2822  -0.1317  -0.1300  -0.0828   0.1830   0.1933
     0.5270   0.5373   0.5658   0.5735   0.6188   0.6220   0.7778   0.7893
     0.9061   0.9114   1.0341   1.5235   1.5609   1.5664   1.5991   1.6039
     1.7428   1.7477   1.7895   1.8017   1.9696   1.9805   2.2731   2.2886
     2.2935   2.3112   2.7451   2.7527   2.7635   2.7727   2.7837   2.7866
     2.8452   2.8535   3.0199   3.1209   3.1347   3.3049   3.3220   3.4250
     3.4885   3.5025   3.7879   3.8029   3.8540   3.8571   3.8674   3.9932
     4.0018   4.0381   4.0396   4.2836   4.3021   4.3389   4.3453   4.4437
     4.4540   4.5198   4.5310   4.8226   5.3859   5.3937   5.4970   5.5064
     5.5931   5.6092   5.6766   5.6837   5.6889   5.6915   5.7926   5.8142
     5.8442   6.0144   6.0763   6.0869   6.1058   6.1113   6.1120   6.1293
     6.2242   6.2386   6.3079   6.3291   6.4391   6.4409   6.4436   6.4610

          k = 0.2500 0.2500-0.2500 (167588 PWs)   bands (ev):

   -19.1903  -7.1264  -6.9353  -6.4068  -6.4012  -5.9664  -5.5705  -5.4657
    -5.4624  -5.2423  -5.2401  -5.1600  -5.1425  -5.0145  -5.0038  -4.8944
    -4.8061  -4.8008  -4.7821  -4.7797  -4.6077  -4.5990  -4.5972  -4.5720
    -4.5697  -4.5658  -4.5622  -4.5198  -4.5086  -4.5077  -4.5059  -4.4439
    -4.4163  -4.4146  -4.3812  -4.3546  -4.3533  -4.3270  -4.3167  -4.3037
    -4.2984  -4.2802  -4.2796  -4.2527  -4.2122  -4.2108  -4.2098  -4.2049
    -4.2039  -4.1782  -4.1577  -4.1475  -4.1155  -4.1133  -4.1120  -4.1115
    -4.1080  -4.1016  -4.0944  -4.0696  -4.0129  -4.0088  -3.9831  -3.9550
    -3.9513  -3.9415  -3.9412  -3.9181  -3.9175  -3.9086  -3.8588  -3.8564
    -3.8552  -3.8493  -3.7983  -3.7633  -3.7551  -3.7413  -3.7293  -3.7073
    -3.6895  -3.6672  -3.6658  -3.6253  -3.6223  -3.6207  -3.6205  -3.6099
    -3.5939  -3.5720  -3.5143  -3.5133  -3.5037  -3.4959  -3.4816  -3.4745
    -3.4688  -3.4669  -3.4610  -3.4604  -3.4168  -3.4166  -3.3955  -3.3803
    -3.3575  -3.3393  -3.3269  -3.3105  -3.2984  -3.2663  -3.2637  -3.2285
    -3.2034  -3.2024  -3.2017  -3.1995  -3.1974  -3.1889  -3.1599  -3.1563
    -3.1254  -3.1242  -3.1038  -3.0789  -3.0766  -3.0751  -3.0697  -3.0678
    -3.0650  -3.0646  -3.0319  -3.0293  -3.0277  -3.0223  -3.0191  -3.0129
    -2.9621  -2.9603  -2.9556  -2.9516  -2.9307  -2.9297  -2.9233  -2.8344
    -2.8289  -2.8261  -2.8225  -2.8160  -2.8106  -2.8099  -2.8086  -2.8003
    -2.7986  -2.7903  -2.7813  -2.7777  -2.7735  -2.7728  -2.7645  -2.7577
    -2.7562  -2.7364  -2.7239  -2.7231  -2.7097  -2.7085  -2.6920  -2.6860
    -2.6826  -2.6814  -2.6609  -2.6507  -2.6472  -2.6437  -2.6386  -2.6089
    -2.6071  -2.5986  -2.5512  -2.5440  -2.5332  -2.5319  -2.5187  -2.5170
    -2.4966  -2.4918  -2.4880  -2.4808  -2.4765  -2.4644  -2.4634  -2.4523
    -2.4471  -2.4229  -2.4208  -2.4117  -2.4113  -2.4028  -2.4001  -2.3863
    -2.3658  -2.3445  -2.2853  -2.2841  -2.2622  -2.2589  -2.2490  -2.2422
    -2.1972  -2.1969  -2.1778  -2.1640  -2.1529  -2.1490  -2.1317  -2.1158
    -2.1116  -2.1021  -2.0971  -2.0821  -2.0742  -2.0575  -2.0494  -2.0485
    -2.0451  -2.0419  -2.0399  -2.0148  -2.0128  -2.0116  -2.0089  -2.0076
    -2.0043  -2.0020  -1.9913  -1.9728  -1.9690  -1.9685  -1.9602  -1.9516
    -1.9483  -1.9479  -1.9445  -1.9401  -1.9392  -1.9016  -1.9001  -1.8600
    -1.8433  -1.8391  -1.8047  -1.7953  -1.7944  -1.7936  -1.7821  -1.7736
    -1.7684  -1.7652  -1.7613  -1.7505  -1.7421  -1.7341  -1.7301  -1.6952
    -1.6928  -1.6746  -1.6564  -1.6556  -1.6195  -1.6192  -1.5785  -1.5646
    -1.5598  -1.5376  -1.5237  -1.5161  -1.5156  -1.5141  -1.5061  -1.4945
    -1.4920  -1.4901  -1.4869  -1.4865  -1.4853  -1.4847  -1.4800  -1.4582
    -1.4536  -1.4474  -1.4269  -1.4238  -1.4074  -1.4025  -1.3969  -1.3958
    -1.3930  -1.3841  -1.3628  -1.3557  -1.3355  -1.3274  -1.3254  -1.3113
    -1.3025  -1.3005  -1.2727  -1.2695  -1.2632  -1.2618  -1.2542  -1.2262
    -1.2174  -1.2113  -1.2085  -1.2074  -1.1903  -1.1847  -1.1788  -1.1698
    -1.1643  -1.1554  -1.1521  -1.1469  -1.1459  -1.1369  -1.1319  -1.1271
    -1.1191  -1.1182  -1.1137  -1.1092  -1.1046  -1.0918  -1.0600  -1.0534
    -1.0486  -1.0440  -1.0437  -1.0400  -1.0301  -1.0114  -1.0004  -0.9819
    -0.9786  -0.9783  -0.9708  -0.9635  -0.9580  -0.9545  -0.9463  -0.9189
    -0.9068  -0.9063  -0.8957  -0.8884  -0.8862  -0.8717  -0.8485  -0.8389
    -0.8245  -0.8204  -0.7851  -0.7832  -0.7822  -0.7775  -0.7750  -0.7745
    -0.7722  -0.7712  -0.7657  -0.7653  -0.7356  -0.7323  -0.7307  -0.7276
    -0.7270  -0.7175  -0.7149  -0.6962  -0.6872  -0.4352  -0.4140  -0.3697
    -0.3598  -0.3409  -0.2822  -0.1317  -0.1300  -0.0828   0.1830   0.1933
     0.5270   0.5373   0.5658   0.5735   0.6188   0.6220   0.7778   0.7893
     0.9061   0.9114   1.0341   1.5235   1.5609   1.5664   1.5991   1.6039
     1.7428   1.7477   1.7895   1.8017   1.9696   1.9805   2.2731   2.2886
     2.2935   2.3112   2.7451   2.7527   2.7635   2.7727   2.7837   2.7866
     2.8452   2.8535   3.0199   3.1209   3.1347   3.3049   3.3220   3.4250
     3.4885   3.5025   3.7879   3.8029   3.8540   3.8571   3.8674   3.9932
     4.0018   4.0381   4.0396   4.2836   4.3021   4.3389   4.3453   4.4437
     4.4540   4.5198   4.5310   4.8226   5.3859   5.3937   5.4971   5.5065
     5.5931   5.6092   5.6766   5.6837   5.6889   5.6914   5.7834   5.8001
     5.8140   6.0753   6.0869   6.1058   6.1112   6.1118   6.1288   6.1767
     6.1803   6.2024   6.3083   6.3289   6.4154   6.4388   6.4415   6.4910

          k =-0.2500-0.2500 0.0833 (167653 PWs)   bands (ev):

   -19.1903  -7.1264  -6.9353  -6.4068  -6.4012  -5.9664  -5.5705  -5.4657
    -5.4624  -5.2423  -5.2401  -5.1600  -5.1425  -5.0145  -5.0038  -4.8944
    -4.8061  -4.8008  -4.7822  -4.7797  -4.6077  -4.5990  -4.5972  -4.5720
    -4.5697  -4.5658  -4.5622  -4.5198  -4.5086  -4.5077  -4.5059  -4.4439
    -4.4163  -4.4146  -4.3812  -4.3546  -4.3533  -4.3270  -4.3168  -4.3037
    -4.2984  -4.2802  -4.2796  -4.2527  -4.2122  -4.2108  -4.2098  -4.2049
    -4.2039  -4.1782  -4.1577  -4.1475  -4.1155  -4.1133  -4.1120  -4.1115
    -4.1080  -4.1016  -4.0944  -4.0696  -4.0129  -4.0088  -3.9831  -3.9550
    -3.9513  -3.9415  -3.9412  -3.9181  -3.9175  -3.9086  -3.8588  -3.8563
    -3.8552  -3.8493  -3.7983  -3.7633  -3.7551  -3.7413  -3.7293  -3.7073
    -3.6895  -3.6672  -3.6658  -3.6253  -3.6223  -3.6207  -3.6205  -3.6099
    -3.5939  -3.5720  -3.5143  -3.5133  -3.5037  -3.4959  -3.4816  -3.4745
    -3.4689  -3.4669  -3.4610  -3.4604  -3.4168  -3.4166  -3.3955  -3.3803
    -3.3575  -3.3393  -3.3269  -3.3105  -3.2984  -3.2664  -3.2637  -3.2285
    -3.2034  -3.2024  -3.2017  -3.1995  -3.1975  -3.1889  -3.1599  -3.1563
    -3.1254  -3.1242  -3.1038  -3.0789  -3.0766  -3.0751  -3.0698  -3.0678
    -3.0650  -3.0646  -3.0319  -3.0293  -3.0277  -3.0223  -3.0191  -3.0129
    -2.9621  -2.9603  -2.9556  -2.9516  -2.9307  -2.9297  -2.9233  -2.8344
    -2.8289  -2.8261  -2.8225  -2.8160  -2.8106  -2.8099  -2.8087  -2.8003
    -2.7986  -2.7903  -2.7813  -2.7777  -2.7735  -2.7728  -2.7645  -2.7577
    -2.7562  -2.7364  -2.7240  -2.7231  -2.7097  -2.7085  -2.6920  -2.6860
    -2.6826  -2.6814  -2.6609  -2.6507  -2.6472  -2.6438  -2.6386  -2.6089
    -2.6071  -2.5986  -2.5512  -2.5440  -2.5332  -2.5320  -2.5187  -2.5170
    -2.4966  -2.4918  -2.4880  -2.4808  -2.4765  -2.4644  -2.4634  -2.4523
    -2.4471  -2.4229  -2.4208  -2.4117  -2.4113  -2.4028  -2.4001  -2.3863
    -2.3658  -2.3445  -2.2853  -2.2841  -2.2622  -2.2589  -2.2490  -2.2422
    -2.1972  -2.1969  -2.1778  -2.1640  -2.1529  -2.1490  -2.1317  -2.1158
    -2.1116  -2.1021  -2.0971  -2.0821  -2.0742  -2.0575  -2.0494  -2.0485
    -2.0451  -2.0419  -2.0399  -2.0148  -2.0128  -2.0116  -2.0089  -2.0076
    -2.0043  -2.0020  -1.9913  -1.9728  -1.9689  -1.9685  -1.9602  -1.9516
    -1.9483  -1.9479  -1.9445  -1.9401  -1.9392  -1.9017  -1.9001  -1.8600
    -1.8433  -1.8391  -1.8047  -1.7953  -1.7944  -1.7936  -1.7821  -1.7736
    -1.7684  -1.7653  -1.7613  -1.7505  -1.7421  -1.7341  -1.7301  -1.6952
    -1.6928  -1.6746  -1.6564  -1.6556  -1.6194  -1.6192  -1.5785  -1.5646
    -1.5598  -1.5375  -1.5237  -1.5161  -1.5156  -1.5141  -1.5061  -1.4945
    -1.4920  -1.4901  -1.4869  -1.4865  -1.4853  -1.4847  -1.4800  -1.4582
    -1.4536  -1.4474  -1.4269  -1.4238  -1.4074  -1.4025  -1.3969  -1.3958
    -1.3930  -1.3841  -1.3628  -1.3557  -1.3355  -1.3274  -1.3254  -1.3113
    -1.3025  -1.3005  -1.2727  -1.2695  -1.2632  -1.2618  -1.2542  -1.2263
    -1.2174  -1.2113  -1.2085  -1.2074  -1.1903  -1.1847  -1.1788  -1.1698
    -1.1643  -1.1554  -1.1521  -1.1469  -1.1459  -1.1369  -1.1319  -1.1271
    -1.1191  -1.1182  -1.1137  -1.1092  -1.1046  -1.0918  -1.0600  -1.0534
    -1.0486  -1.0440  -1.0437  -1.0399  -1.0301  -1.0114  -1.0004  -0.9819
    -0.9786  -0.9783  -0.9708  -0.9635  -0.9580  -0.9545  -0.9463  -0.9189
    -0.9068  -0.9063  -0.8957  -0.8884  -0.8862  -0.8717  -0.8485  -0.8389
    -0.8245  -0.8204  -0.7851  -0.7832  -0.7822  -0.7775  -0.7750  -0.7745
    -0.7722  -0.7712  -0.7657  -0.7653  -0.7356  -0.7323  -0.7307  -0.7276
    -0.7270  -0.7175  -0.7149  -0.6962  -0.6872  -0.4352  -0.4140  -0.3697
    -0.3598  -0.3409  -0.2822  -0.1317  -0.1300  -0.0828   0.1830   0.1933
     0.5270   0.5373   0.5658   0.5735   0.6188   0.6220   0.7778   0.7893
     0.9061   0.9114   1.0341   1.5235   1.5609   1.5664   1.5991   1.6039
     1.7428   1.7477   1.7895   1.8017   1.9696   1.9805   2.2731   2.2886
     2.2935   2.3112   2.7451   2.7527   2.7635   2.7727   2.7837   2.7866
     2.8452   2.8535   3.0199   3.1209   3.1347   3.3049   3.3220   3.4250
     3.4885   3.5025   3.7879   3.8029   3.8540   3.8571   3.8674   3.9932
     4.0018   4.0381   4.0396   4.2836   4.3021   4.3389   4.3453   4.4437
     4.4540   4.5198   4.5310   4.8226   5.3859   5.3937   5.4970   5.5064
     5.5931   5.6092   5.6766   5.6837   5.6889   5.6915   5.7926   5.8142
     5.8442   6.0144   6.0763   6.0869   6.1058   6.1113   6.1120   6.1293
     6.2242   6.2385   6.3079   6.3291   6.4390   6.4412   6.4434   6.4610

          k =-0.2500 0.2500-0.0833 (167653 PWs)   bands (ev):

   -19.1903  -7.1268  -6.9343  -6.4063  -6.4031  -5.9653  -5.5702  -5.4647
    -5.4627  -5.2421  -5.2416  -5.1588  -5.1445  -5.0138  -5.0033  -4.8936
    -4.8072  -4.8013  -4.7820  -4.7807  -4.6087  -4.5984  -4.5973  -4.5724
    -4.5690  -4.5668  -4.5621  -4.5188  -4.5094  -4.5069  -4.5063  -4.4428
    -4.4163  -4.4147  -4.3819  -4.3547  -4.3531  -4.3241  -4.3165  -4.3034
    -4.2984  -4.2799  -4.2798  -4.2567  -4.2129  -4.2108  -4.2102  -4.2042
    -4.2040  -4.1776  -4.1528  -4.1493  -4.1172  -4.1132  -4.1114  -4.1105
    -4.1087  -4.1020  -4.0887  -4.0692  -4.0108  -4.0094  -3.9832  -3.9564
    -3.9543  -3.9416  -3.9402  -3.9181  -3.9170  -3.9077  -3.8627  -3.8561
    -3.8554  -3.8494  -3.8008  -3.7642  -3.7514  -3.7420  -3.7295  -3.7072
    -3.6895  -3.6683  -3.6676  -3.6354  -3.6232  -3.6208  -3.6204  -3.6156
    -3.5944  -3.5657  -3.5144  -3.5131  -3.4988  -3.4963  -3.4825  -3.4708
    -3.4674  -3.4670  -3.4622  -3.4553  -3.4174  -3.4165  -3.3950  -3.3810
    -3.3569  -3.3381  -3.3325  -3.3109  -3.2926  -3.2642  -3.2628  -3.2292
    -3.2033  -3.2030  -3.2015  -3.1988  -3.1974  -3.1922  -3.1600  -3.1597
    -3.1251  -3.1245  -3.1035  -3.0790  -3.0772  -3.0748  -3.0701  -3.0676
    -3.0656  -3.0646  -3.0319  -3.0302  -3.0275  -3.0220  -3.0179  -3.0116
    -2.9602  -2.9585  -2.9553  -2.9517  -2.9301  -2.9289  -2.9265  -2.8345
    -2.8295  -2.8252  -2.8219  -2.8159  -2.8102  -2.8091  -2.8080  -2.8004
    -2.7983  -2.7913  -2.7817  -2.7776  -2.7736  -2.7717  -2.7646  -2.7567
    -2.7549  -2.7370  -2.7240  -2.7232  -2.7094  -2.7081  -2.6918  -2.6862
    -2.6820  -2.6817  -2.6609  -2.6498  -2.6492  -2.6437  -2.6332  -2.6100
    -2.6072  -2.6010  -2.5501  -2.5441  -2.5375  -2.5309  -2.5187  -2.5175
    -2.4960  -2.4908  -2.4887  -2.4791  -2.4770  -2.4669  -2.4655  -2.4537
    -2.4475  -2.4238  -2.4215  -2.4132  -2.4115  -2.4026  -2.4010  -2.3798
    -2.3677  -2.3444  -2.2901  -2.2802  -2.2604  -2.2588  -2.2498  -2.2417
    -2.1977  -2.1969  -2.1792  -2.1646  -2.1573  -2.1482  -2.1329  -2.1159
    -2.1106  -2.1032  -2.0949  -2.0835  -2.0680  -2.0580  -2.0504  -2.0483
    -2.0456  -2.0408  -2.0379  -2.0146  -2.0134  -2.0105  -2.0097  -2.0074
    -2.0039  -2.0017  -1.9929  -1.9778  -1.9699  -1.9686  -1.9595  -1.9529
    -1.9493  -1.9480  -1.9447  -1.9423  -1.9385  -1.9041  -1.9001  -1.8596
    -1.8434  -1.8408  -1.7956  -1.7949  -1.7944  -1.7829  -1.7817  -1.7687
    -1.7681  -1.7643  -1.7594  -1.7508  -1.7379  -1.7324  -1.7313  -1.6972
    -1.6910  -1.6784  -1.6740  -1.6553  -1.6202  -1.6103  -1.5979  -1.5623
    -1.5619  -1.5415  -1.5247  -1.5164  -1.5152  -1.5088  -1.5011  -1.4931
    -1.4923  -1.4907  -1.4864  -1.4862  -1.4848  -1.4834  -1.4764  -1.4587
    -1.4536  -1.4294  -1.4277  -1.4254  -1.4159  -1.4010  -1.3987  -1.3962
    -1.3910  -1.3763  -1.3556  -1.3488  -1.3433  -1.3271  -1.3218  -1.3161
    -1.3062  -1.2955  -1.2944  -1.2667  -1.2658  -1.2571  -1.2525  -1.2175
    -1.2137  -1.2116  -1.2109  -1.2073  -1.1925  -1.1813  -1.1807  -1.1686
    -1.1609  -1.1598  -1.1492  -1.1471  -1.1458  -1.1427  -1.1384  -1.1255
    -1.1214  -1.1172  -1.1139  -1.1093  -1.1026  -1.0952  -1.0840  -1.0494
    -1.0485  -1.0475  -1.0438  -1.0381  -1.0294  -1.0095  -1.0021  -0.9910
    -0.9779  -0.9740  -0.9708  -0.9690  -0.9638  -0.9536  -0.9248  -0.9193
    -0.9077  -0.9057  -0.9047  -0.8883  -0.8861  -0.8703  -0.8499  -0.8390
    -0.8252  -0.8201  -0.7846  -0.7834  -0.7808  -0.7774  -0.7752  -0.7728
    -0.7719  -0.7710  -0.7661  -0.7641  -0.7331  -0.7328  -0.7276  -0.7271
    -0.7244  -0.7194  -0.7138  -0.6978  -0.6845  -0.4342  -0.4142  -0.3655
    -0.3572  -0.3412  -0.2798  -0.1304  -0.1293  -0.0917   0.1846   0.1923
     0.5287   0.5322   0.5682   0.5719   0.6202   0.6226   0.7833   0.7956
     0.9055   0.9107   1.0324   1.5198   1.5516   1.5666   1.6006   1.6009
     1.7430   1.7538   1.7953   1.7971   1.9735   1.9774   2.2652   2.2859
     2.2924   2.3118   2.7397   2.7532   2.7662   2.7685   2.7836   2.7874
     2.8478   2.8520   3.0185   3.1349   3.1404   3.3198   3.3299   3.4206
     3.4926   3.4933   3.7982   3.8004   3.8389   3.8561   3.8618   3.9918
     4.0054   4.0316   4.0519   4.2932   4.2964   4.3326   4.3448   4.4424
     4.4541   4.5046   4.5235   4.8171   5.4007   5.4017   5.4866   5.5096
     5.6019   5.6103   5.6683   5.6849   5.6941   5.6973   5.8072   5.8187
     5.8436   6.0130   6.0708   6.0977   6.1016   6.1106   6.1144   6.1188
     6.2235   6.2347   6.2919   6.3319   6.4450   6.4471   6.4576   6.4903

          k = 0.2500-0.2500-0.0833 (167653 PWs)   bands (ev):

   -19.1903  -7.1268  -6.9343  -6.4063  -6.4031  -5.9653  -5.5702  -5.4647
    -5.4627  -5.2421  -5.2416  -5.1588  -5.1445  -5.0138  -5.0033  -4.8936
    -4.8072  -4.8013  -4.7820  -4.7807  -4.6087  -4.5984  -4.5973  -4.5724
    -4.5690  -4.5668  -4.5621  -4.5188  -4.5094  -4.5069  -4.5063  -4.4428
    -4.4163  -4.4147  -4.3819  -4.3547  -4.3531  -4.3241  -4.3165  -4.3034
    -4.2984  -4.2799  -4.2798  -4.2567  -4.2129  -4.2108  -4.2102  -4.2042
    -4.2040  -4.1776  -4.1528  -4.1493  -4.1172  -4.1132  -4.1114  -4.1105
    -4.1087  -4.1020  -4.0887  -4.0692  -4.0108  -4.0094  -3.9832  -3.9564
    -3.9543  -3.9416  -3.9402  -3.9181  -3.9170  -3.9077  -3.8627  -3.8561
    -3.8554  -3.8494  -3.8008  -3.7642  -3.7514  -3.7420  -3.7295  -3.7072
    -3.6895  -3.6683  -3.6676  -3.6354  -3.6232  -3.6208  -3.6204  -3.6156
    -3.5944  -3.5657  -3.5144  -3.5131  -3.4988  -3.4963  -3.4825  -3.4708
    -3.4674  -3.4670  -3.4622  -3.4553  -3.4174  -3.4165  -3.3950  -3.3810
    -3.3569  -3.3381  -3.3325  -3.3109  -3.2926  -3.2642  -3.2628  -3.2292
    -3.2033  -3.2030  -3.2015  -3.1988  -3.1974  -3.1922  -3.1600  -3.1597
    -3.1251  -3.1245  -3.1035  -3.0790  -3.0772  -3.0748  -3.0701  -3.0676
    -3.0656  -3.0646  -3.0319  -3.0302  -3.0275  -3.0220  -3.0179  -3.0116
    -2.9602  -2.9585  -2.9553  -2.9517  -2.9301  -2.9289  -2.9265  -2.8345
    -2.8295  -2.8252  -2.8219  -2.8159  -2.8102  -2.8091  -2.8080  -2.8004
    -2.7983  -2.7913  -2.7817  -2.7776  -2.7736  -2.7717  -2.7646  -2.7567
    -2.7549  -2.7370  -2.7240  -2.7232  -2.7094  -2.7081  -2.6918  -2.6862
    -2.6820  -2.6817  -2.6609  -2.6498  -2.6492  -2.6437  -2.6332  -2.6100
    -2.6072  -2.6010  -2.5501  -2.5441  -2.5375  -2.5309  -2.5187  -2.5175
    -2.4960  -2.4908  -2.4887  -2.4791  -2.4770  -2.4669  -2.4655  -2.4537
    -2.4475  -2.4238  -2.4215  -2.4132  -2.4115  -2.4026  -2.4010  -2.3798
    -2.3677  -2.3444  -2.2901  -2.2802  -2.2604  -2.2588  -2.2498  -2.2417
    -2.1977  -2.1969  -2.1792  -2.1646  -2.1573  -2.1482  -2.1329  -2.1159
    -2.1106  -2.1032  -2.0949  -2.0835  -2.0680  -2.0580  -2.0504  -2.0483
    -2.0456  -2.0408  -2.0379  -2.0146  -2.0134  -2.0105  -2.0097  -2.0074
    -2.0039  -2.0017  -1.9929  -1.9778  -1.9699  -1.9686  -1.9595  -1.9529
    -1.9493  -1.9480  -1.9447  -1.9423  -1.9385  -1.9041  -1.9001  -1.8596
    -1.8434  -1.8408  -1.7956  -1.7949  -1.7944  -1.7829  -1.7817  -1.7687
    -1.7681  -1.7643  -1.7594  -1.7508  -1.7379  -1.7324  -1.7313  -1.6972
    -1.6910  -1.6784  -1.6740  -1.6553  -1.6202  -1.6103  -1.5978  -1.5623
    -1.5619  -1.5415  -1.5247  -1.5164  -1.5152  -1.5088  -1.5011  -1.4931
    -1.4923  -1.4907  -1.4864  -1.4862  -1.4848  -1.4834  -1.4764  -1.4587
    -1.4536  -1.4294  -1.4277  -1.4254  -1.4159  -1.4010  -1.3987  -1.3962
    -1.3910  -1.3763  -1.3556  -1.3488  -1.3433  -1.3271  -1.3218  -1.3161
    -1.3062  -1.2955  -1.2944  -1.2667  -1.2658  -1.2571  -1.2525  -1.2175
    -1.2137  -1.2116  -1.2109  -1.2073  -1.1925  -1.1813  -1.1807  -1.1686
    -1.1609  -1.1598  -1.1492  -1.1471  -1.1458  -1.1427  -1.1384  -1.1255
    -1.1214  -1.1172  -1.1139  -1.1093  -1.1026  -1.0952  -1.0840  -1.0494
    -1.0485  -1.0475  -1.0438  -1.0381  -1.0294  -1.0095  -1.0021  -0.9910
    -0.9779  -0.9740  -0.9708  -0.9690  -0.9638  -0.9536  -0.9248  -0.9193
    -0.9077  -0.9057  -0.9047  -0.8883  -0.8861  -0.8703  -0.8499  -0.8390
    -0.8252  -0.8201  -0.7846  -0.7834  -0.7808  -0.7774  -0.7752  -0.7728
    -0.7719  -0.7710  -0.7661  -0.7641  -0.7331  -0.7328  -0.7276  -0.7271
    -0.7244  -0.7194  -0.7138  -0.6978  -0.6845  -0.4342  -0.4142  -0.3655
    -0.3572  -0.3412  -0.2798  -0.1304  -0.1293  -0.0917   0.1846   0.1923
     0.5287   0.5322   0.5682   0.5719   0.6202   0.6226   0.7833   0.7956
     0.9055   0.9107   1.0324   1.5198   1.5516   1.5666   1.6006   1.6009
     1.7430   1.7538   1.7953   1.7971   1.9735   1.9774   2.2652   2.2859
     2.2924   2.3118   2.7397   2.7532   2.7662   2.7685   2.7836   2.7874
     2.8478   2.8520   3.0185   3.1349   3.1404   3.3198   3.3299   3.4206
     3.4926   3.4933   3.7982   3.8004   3.8389   3.8561   3.8618   3.9918
     4.0054   4.0316   4.0519   4.2932   4.2964   4.3326   4.3448   4.4424
     4.4541   4.5046   4.5235   4.8171   5.4007   5.4017   5.4866   5.5096
     5.6019   5.6103   5.6683   5.6849   5.6941   5.6973   5.8072   5.8187
     5.8436   6.0131   6.0708   6.0977   6.1016   6.1106   6.1144   6.1188
     6.2234   6.2347   6.2919   6.3319   6.4451   6.4472   6.4575   6.4909

          k =-0.2500 0.2500 0.2500 (167588 PWs)   bands (ev):

   -19.1903  -7.1268  -6.9343  -6.4063  -6.4031  -5.9653  -5.5702  -5.4647
    -5.4627  -5.2421  -5.2416  -5.1588  -5.1445  -5.0138  -5.0033  -4.8936
    -4.8072  -4.8013  -4.7820  -4.7807  -4.6087  -4.5984  -4.5973  -4.5724
    -4.5690  -4.5668  -4.5621  -4.5188  -4.5094  -4.5069  -4.5063  -4.4428
    -4.4163  -4.4147  -4.3819  -4.3547  -4.3531  -4.3241  -4.3165  -4.3034
    -4.2984  -4.2799  -4.2798  -4.2567  -4.2129  -4.2108  -4.2102  -4.2042
    -4.2040  -4.1776  -4.1528  -4.1493  -4.1172  -4.1132  -4.1114  -4.1105
    -4.1087  -4.1020  -4.0887  -4.0692  -4.0108  -4.0094  -3.9832  -3.9564
    -3.9543  -3.9416  -3.9402  -3.9181  -3.9170  -3.9078  -3.8627  -3.8561
    -3.8554  -3.8494  -3.8008  -3.7642  -3.7514  -3.7420  -3.7295  -3.7072
    -3.6895  -3.6683  -3.6676  -3.6354  -3.6232  -3.6208  -3.6204  -3.6156
    -3.5944  -3.5657  -3.5144  -3.5131  -3.4988  -3.4963  -3.4825  -3.4708
    -3.4674  -3.4670  -3.4622  -3.4553  -3.4174  -3.4165  -3.3950  -3.3810
    -3.3569  -3.3381  -3.3325  -3.3109  -3.2926  -3.2642  -3.2628  -3.2292
    -3.2033  -3.2030  -3.2015  -3.1988  -3.1974  -3.1922  -3.1600  -3.1597
    -3.1251  -3.1245  -3.1035  -3.0790  -3.0772  -3.0748  -3.0701  -3.0676
    -3.0656  -3.0646  -3.0319  -3.0301  -3.0275  -3.0220  -3.0179  -3.0116
    -2.9602  -2.9585  -2.9553  -2.9517  -2.9301  -2.9289  -2.9265  -2.8345
    -2.8295  -2.8252  -2.8219  -2.8159  -2.8102  -2.8091  -2.8080  -2.8004
    -2.7983  -2.7913  -2.7817  -2.7776  -2.7736  -2.7716  -2.7646  -2.7567
    -2.7549  -2.7370  -2.7240  -2.7232  -2.7093  -2.7081  -2.6918  -2.6862
    -2.6820  -2.6816  -2.6609  -2.6498  -2.6492  -2.6437  -2.6332  -2.6100
    -2.6072  -2.6010  -2.5501  -2.5441  -2.5375  -2.5309  -2.5187  -2.5175
    -2.4960  -2.4908  -2.4887  -2.4791  -2.4770  -2.4669  -2.4655  -2.4537
    -2.4475  -2.4238  -2.4215  -2.4132  -2.4115  -2.4026  -2.4010  -2.3798
    -2.3677  -2.3444  -2.2901  -2.2802  -2.2604  -2.2588  -2.2498  -2.2417
    -2.1977  -2.1969  -2.1792  -2.1646  -2.1573  -2.1482  -2.1330  -2.1159
    -2.1106  -2.1032  -2.0949  -2.0835  -2.0680  -2.0580  -2.0504  -2.0483
    -2.0456  -2.0408  -2.0379  -2.0146  -2.0134  -2.0105  -2.0097  -2.0074
    -2.0039  -2.0017  -1.9929  -1.9778  -1.9699  -1.9686  -1.9595  -1.9529
    -1.9494  -1.9480  -1.9447  -1.9423  -1.9385  -1.9041  -1.9001  -1.8596
    -1.8434  -1.8408  -1.7956  -1.7949  -1.7944  -1.7829  -1.7817  -1.7687
    -1.7681  -1.7643  -1.7594  -1.7508  -1.7379  -1.7324  -1.7313  -1.6972
    -1.6910  -1.6784  -1.6740  -1.6553  -1.6202  -1.6103  -1.5979  -1.5623
    -1.5619  -1.5415  -1.5247  -1.5164  -1.5152  -1.5088  -1.5011  -1.4931
    -1.4923  -1.4907  -1.4864  -1.4862  -1.4848  -1.4834  -1.4764  -1.4587
    -1.4536  -1.4294  -1.4277  -1.4254  -1.4159  -1.4010  -1.3987  -1.3962
    -1.3910  -1.3763  -1.3556  -1.3488  -1.3433  -1.3271  -1.3218  -1.3162
    -1.3062  -1.2955  -1.2944  -1.2667  -1.2658  -1.2571  -1.2525  -1.2175
    -1.2137  -1.2116  -1.2109  -1.2073  -1.1925  -1.1813  -1.1807  -1.1686
    -1.1609  -1.1598  -1.1492  -1.1471  -1.1458  -1.1427  -1.1384  -1.1255
    -1.1214  -1.1172  -1.1139  -1.1093  -1.1026  -1.0952  -1.0839  -1.0494
    -1.0485  -1.0476  -1.0438  -1.0381  -1.0294  -1.0095  -1.0021  -0.9910
    -0.9779  -0.9739  -0.9708  -0.9690  -0.9638  -0.9536  -0.9248  -0.9193
    -0.9077  -0.9057  -0.9047  -0.8883  -0.8861  -0.8703  -0.8499  -0.8390
    -0.8252  -0.8201  -0.7846  -0.7834  -0.7808  -0.7774  -0.7752  -0.7728
    -0.7719  -0.7710  -0.7661  -0.7641  -0.7331  -0.7328  -0.7276  -0.7271
    -0.7244  -0.7194  -0.7138  -0.6978  -0.6845  -0.4342  -0.4142  -0.3655
    -0.3572  -0.3412  -0.2798  -0.1304  -0.1293  -0.0917   0.1846   0.1924
     0.5287   0.5322   0.5682   0.5719   0.6202   0.6226   0.7833   0.7956
     0.9055   0.9107   1.0324   1.5198   1.5516   1.5666   1.6006   1.6009
     1.7430   1.7538   1.7953   1.7971   1.9735   1.9774   2.2652   2.2859
     2.2924   2.3118   2.7397   2.7532   2.7662   2.7685   2.7836   2.7874
     2.8478   2.8520   3.0185   3.1349   3.1404   3.3198   3.3299   3.4206
     3.4926   3.4933   3.7982   3.8004   3.8389   3.8561   3.8618   3.9918
     4.0054   4.0316   4.0519   4.2932   4.2964   4.3326   4.3448   4.4424
     4.4541   4.5046   4.5235   4.8172   5.4007   5.4017   5.4867   5.5097
     5.6019   5.6103   5.6682   5.6849   5.6941   5.6973   5.7890   5.8072
     5.8198   6.0685   6.0971   6.1016   6.1105   6.1138   6.1186   6.1717
     6.1876   6.1974   6.2907   6.3320   6.4161   6.4449   6.4510   6.4919

     the Fermi energy is     0.8547 ev

!    total energy              =   -7379.97735335 Ry
     Harris-Foulkes estimate   =   -7379.97735335 Ry
     estimated scf accuracy    <          5.7E-09 Ry

     The total energy is the sum of the following terms:

     one-electron contribution =  -48927.57381934 Ry
     hartree contribution      =   25010.45237309 Ry
     xc contribution           =   -3556.30683986 Ry
     ewald contribution        =   20093.44957443 Ry
     smearing contrib. (-TS)   =       0.00135832 Ry

     convergence has been achieved in  26 iterations

     Writing output data file 7204498.save

     init_run     :     96.30s CPU    100.71s WALL (       1 calls)
     electrons    :   5886.02s CPU   6189.46s WALL (       1 calls)

     Called by init_run:
     wfcinit      :     71.73s CPU     75.82s WALL (       1 calls)
     potinit      :      3.07s CPU      3.14s WALL (       1 calls)

     Called by electrons:
     c_bands      :   4817.70s CPU   5064.89s WALL (      27 calls)
     sum_band     :    721.78s CPU    772.52s WALL (      27 calls)
     v_of_rho     :     14.24s CPU     15.43s WALL (      27 calls)
     newd         :    340.24s CPU    343.63s WALL (      27 calls)
     mix_rho      :      2.88s CPU      3.17s WALL (      27 calls)

     Called by c_bands:
     init_us_2    :      8.45s CPU      8.77s WALL (     330 calls)
     cegterg      :   4695.71s CPU   4941.94s WALL (     162 calls)

     Called by *egterg:
     h_psi        :   1860.56s CPU   2083.79s WALL (     794 calls)
     s_psi        :    204.76s CPU    205.77s WALL (     794 calls)
     g_psi        :      4.46s CPU      4.51s WALL (     626 calls)
     cdiaghg      :   1042.13s CPU   1044.89s WALL (     782 calls)

     Called by h_psi:
     add_vuspsi   :    205.08s CPU    206.23s WALL (     794 calls)

     General routines
     calbec       :    492.87s CPU    494.45s WALL (     956 calls)
     fft          :     71.81s CPU     73.88s WALL (     432 calls)
     ffts         :      1.43s CPU      1.64s WALL (      54 calls)
     fftw         :   1495.10s CPU   1745.73s WALL (  437752 calls)
     interpolate  :      3.73s CPU      4.27s WALL (      54 calls)
     davcio       :      0.00s CPU      0.11s WALL (       6 calls)

     Parallel routines
     fft_scatter  :   1103.03s CPU   1303.81s WALL (  438238 calls)

     PWSCF        :     1h39m CPU        1h45m WALL


   This run was terminated on:  16:22:20  10Aug2015            

=------------------------------------------------------------------------------=
   JOB DONE.
=------------------------------------------------------------------------------=
