Setting SGE environment for SCC

     Program PWSCF v.5.1.2 starts on  7Aug2015 at 17:58:27 

     This program is part of the open-source Quantum ESPRESSO suite
     for quantum simulation of materials; please cite
         "P. Giannozzi et al., J. Phys.:Condens. Matter 21 395502 (2009);
          URL http://www.quantum-espresso.org", 
     in publications or presentations arising from this work. More details at
     http://www.quantum-espresso.org/quote

     Parallel version (MPI), running on    32 processors
     R & G space division:  proc/nbgrp/npool/nimage =      32
     Reading input from top.O1.Au5859.d.2.7.phi.0.psi.180.in
Warning: card &IONS ignored
Warning: card / ignored
Warning: card &CELL ignored
Warning: card / ignored

     Current dimensions of program PWSCF are:
     Max number of different atomic species (ntypx) = 10
     Max number of k-points (npk) =  40000
     Max angular momentum in pseudopotentials (lmaxx) =  3

     Subspace diagonalization in iterative solution of the eigenvalue problem:
     a serial algorithm will be used


     Parallelization info
     --------------------
     sticks:   dense  smooth     PW     G-vecs:    dense   smooth      PW
     Min         578     289     74               118518    41891    5486
     Max         579     290     75               118533    41932    5497
     Sum       18505    9265   2385              3792731  1341081  175711


     Title: 
     top.O1.Au5859.d.2.7.phi.0.psi.180                                          


     bravais-lattice index     =            8
     lattice parameter (alat)  =      24.1233  a.u.
     unit-cell volume          =   28076.2361 (a.u.)^3
     number of atoms/cell      =           75
     number of atomic types    =            3
     number of electrons       =       800.00
     number of Kohn-Sham states=          480
     kinetic-energy cutoff     =      50.0000  Ry
     charge density cutoff     =     400.0000  Ry
     convergence threshold     =      1.0E-08
     mixing beta               =       0.7000
     number of iterations used =            8  plain     mixing
     Exchange-correlation      =  SLA  PW   PBE  PBE ( 1  4  3  4 0 0)

     celldm(1)=  24.123277  celldm(2)=   1.000000  celldm(3)=   2.000000
     celldm(4)=   0.000000  celldm(5)=   0.000000  celldm(6)=   0.000000

     crystal axes: (cart. coord. in units of alat)
               a(1) = (   1.000000   0.000000   0.000000 )  
               a(2) = (   0.000000   1.000000   0.000000 )  
               a(3) = (   0.000000   0.000000   2.000000 )  

     reciprocal axes: (cart. coord. in units 2 pi/alat)
               b(1) = (  1.000000  0.000000  0.000000 )  
               b(2) = (  0.000000  1.000000  0.000000 )  
               b(3) = (  0.000000  0.000000  0.500000 )  


     PseudoPot. # 1 for Au read from file:
     /home/scc/andrejb/qe/pseudo/Au.pbe-nd-van.UPF
     MD5 check sum: 458681b50f36d87ef23c61b04bba420a
     Pseudo is Ultrasoft + core correction, Zval = 11.0
     Generated by new atomic code, or converted to UPF format
     Using radial grid of  985 points,  3 beta functions with: 
                l(1) =   1
                l(2) =   2
                l(3) =   2
     Q(r) pseudized with  8 coefficients,  rinner =    1.100   1.100   1.100
                                                       1.100   1.100

     PseudoPot. # 2 for H  read from file:
     /home/scc/andrejb/qe/pseudo/H.pbe-van_ak.UPF
     MD5 check sum: 403db7282739603aa925980fa9b8608d
     Pseudo is Ultrasoft, Zval =  1.0
     Generated by new atomic code, or converted to UPF format
     Using radial grid of  615 points,  1 beta functions with: 
                l(1) =   0
     Q(r) pseudized with  8 coefficients,  rinner =    0.800

     PseudoPot. # 3 for O  read from file:
     /home/scc/andrejb/qe/pseudo/O.pbe-van_ak.UPF
     MD5 check sum: 4b8c549914a63cae506c6ff22b5af4fe
     Pseudo is Ultrasoft, Zval =  6.0
     Generated by new atomic code, or converted to UPF format
     Using radial grid of  737 points,  4 beta functions with: 
                l(1) =   0
                l(2) =   0
                l(3) =   1
                l(4) =   1
     Q(r) pseudized with  8 coefficients,  rinner =    0.800   0.800   0.800


     atomic species   valence    mass     pseudopotential
        Au            11.00   196.96657     Au( 1.00)
        H              1.00     1.01000     H ( 1.00)
        O              6.00    16.00000     O ( 1.00)

     No symmetry found



   Cartesian axes

     site n.     atom                  positions (alat units)
         1           O   tau(   1) = (   0.1666051   0.1666105   0.7108218  )
         2           H   tau(   2) = (   0.1195275   0.2057820   0.6653279  )
         3           H   tau(   3) = (   0.2122554   0.1286088   0.6629641  )
         4           Au  tau(   4) = (   0.0000000   0.0000000   0.0000000  )
         5           Au  tau(   5) = (   0.3332217   0.0000000   0.0000000  )
         6           Au  tau(   6) = (   0.6664434   0.0000000   0.0000000  )
         7           Au  tau(   7) = (   0.1666109   0.1666109   0.0000000  )
         8           Au  tau(   8) = (   0.4998326   0.1666109   0.0000000  )
         9           Au  tau(   9) = (   0.8330542   0.1666109   0.0000000  )
        10           Au  tau(  10) = (   0.0000000   0.3332217   0.0000000  )
        11           Au  tau(  11) = (   0.3332217   0.3332217   0.0000000  )
        12           Au  tau(  12) = (   0.6664434   0.3332217   0.0000000  )
        13           Au  tau(  13) = (   0.1666109   0.4998326   0.0000000  )
        14           Au  tau(  14) = (   0.4998326   0.4998326   0.0000000  )
        15           Au  tau(  15) = (   0.8330542   0.4998326   0.0000000  )
        16           Au  tau(  16) = (   0.0000000   0.6664434   0.0000000  )
        17           Au  tau(  17) = (   0.3332217   0.6664434   0.0000000  )
        18           Au  tau(  18) = (   0.6664434   0.6664434   0.0000000  )
        19           Au  tau(  19) = (   0.1666109   0.8330542   0.0000000  )
        20           Au  tau(  20) = (   0.4998326   0.8330542   0.0000000  )
        21           Au  tau(  21) = (   0.8330542   0.8330542   0.0000000  )
        22           Au  tau(  22) = (   0.1666109   0.0000000   0.1666109  )
        23           Au  tau(  23) = (   0.4998326   0.0000000   0.1666109  )
        24           Au  tau(  24) = (   0.8330542   0.0000000   0.1666109  )
        25           Au  tau(  25) = (   0.0000000   0.1666109   0.1666109  )
        26           Au  tau(  26) = (   0.3332217   0.1666109   0.1666109  )
        27           Au  tau(  27) = (   0.6664434   0.1666109   0.1666109  )
        28           Au  tau(  28) = (   0.1666109   0.3332217   0.1666109  )
        29           Au  tau(  29) = (   0.4998326   0.3332217   0.1666109  )
        30           Au  tau(  30) = (   0.8330542   0.3332217   0.1666109  )
        31           Au  tau(  31) = (   0.0000000   0.4998326   0.1666109  )
        32           Au  tau(  32) = (   0.3332217   0.4998326   0.1666109  )
        33           Au  tau(  33) = (   0.6664434   0.4998326   0.1666109  )
        34           Au  tau(  34) = (   0.1666109   0.6664434   0.1666109  )
        35           Au  tau(  35) = (   0.4998326   0.6664434   0.1666109  )
        36           Au  tau(  36) = (   0.8330542   0.6664434   0.1666109  )
        37           Au  tau(  37) = (   0.0000000   0.8330542   0.1666109  )
        38           Au  tau(  38) = (   0.3332217   0.8330542   0.1666109  )
        39           Au  tau(  39) = (   0.6664434   0.8330542   0.1666109  )
        40           Au  tau(  40) = (  -0.0000182  -0.0000182   0.3335478  )
        41           Au  tau(  41) = (   0.3332215  -0.0000181   0.3335473  )
        42           Au  tau(  42) = (   0.6664447  -0.0000183   0.3335481  )
        43           Au  tau(  43) = (  -0.0000181   0.3332215   0.3335473  )
        44           Au  tau(  44) = (   0.3332215   0.3332215   0.3335468  )
        45           Au  tau(  45) = (   0.6664445   0.3332215   0.3335477  )
        46           Au  tau(  46) = (  -0.0000183   0.6664447   0.3335481  )
        47           Au  tau(  47) = (   0.3332215   0.6664445   0.3335477  )
        48           Au  tau(  48) = (   0.6664446   0.6664446   0.3335486  )
        49           Au  tau(  49) = (   0.1666097   0.1666097   0.3335483  )
        50           Au  tau(  50) = (   0.4998320   0.1666098   0.3335477  )
        51           Au  tau(  51) = (   0.8330732   0.1666096   0.3335480  )
        52           Au  tau(  52) = (   0.1666098   0.4998320   0.3335477  )
        53           Au  tau(  53) = (   0.4998322   0.4998322   0.3335470  )
        54           Au  tau(  54) = (   0.8330731   0.4998322   0.3335474  )
        55           Au  tau(  55) = (   0.1666096   0.8330732   0.3335480  )
        56           Au  tau(  56) = (   0.4998322   0.8330731   0.3335474  )
        57           Au  tau(  57) = (   0.8330731   0.8330731   0.3335478  )
        58           Au  tau(  58) = (   0.1666104  -0.0000111   0.4993095  )
        59           Au  tau(  59) = (   0.4998323  -0.0000112   0.4993099  )
        60           Au  tau(  60) = (   0.8330660  -0.0000111   0.4993009  )
        61           Au  tau(  61) = (  -0.0000111   0.1666104   0.4993095  )
        62           Au  tau(  62) = (   0.3332213   0.1666106   0.4993185  )
        63           Au  tau(  63) = (   0.6664437   0.1666106   0.4993187  )
        64           Au  tau(  64) = (   0.1666106   0.3332213   0.4993185  )
        65           Au  tau(  65) = (   0.4998324   0.3332216   0.4993185  )
        66           Au  tau(  66) = (   0.8330658   0.3332215   0.4993102  )
        67           Au  tau(  67) = (  -0.0000112   0.4998323   0.4993099  )
        68           Au  tau(  68) = (   0.3332216   0.4998324   0.4993185  )
        69           Au  tau(  69) = (   0.6664437   0.4998325   0.4993187  )
        70           Au  tau(  70) = (   0.1666106   0.6664437   0.4993187  )
        71           Au  tau(  71) = (   0.4998325   0.6664437   0.4993187  )
        72           Au  tau(  72) = (   0.8330658   0.6664438   0.4993102  )
        73           Au  tau(  73) = (  -0.0000111   0.8330660   0.4993009  )
        74           Au  tau(  74) = (   0.3332215   0.8330658   0.4993102  )
        75           Au  tau(  75) = (   0.6664438   0.8330658   0.4993102  )

     number of k points=     6  Marzari-Vanderbilt smearing, width (Ry)=  0.0200
                       cart. coord. in units 2pi/alat
        k(    1) = (   0.2500000   0.2500000   0.0833333), wk =   0.3333333
        k(    2) = (   0.2500000   0.2500000  -0.2500000), wk =   0.3333333
        k(    3) = (  -0.2500000  -0.2500000   0.0833333), wk =   0.3333333
        k(    4) = (  -0.2500000   0.2500000  -0.0833333), wk =   0.3333333
        k(    5) = (   0.2500000  -0.2500000  -0.0833333), wk =   0.3333333
        k(    6) = (  -0.2500000   0.2500000   0.2500000), wk =   0.3333333

     Dense  grid:  3792731 G-vectors     FFT dimensions: ( 160, 160, 320)

     Smooth grid:  1341081 G-vectors     FFT dimensions: ( 120, 120, 225)

     Largest allocated arrays     est. size (Mb)     dimensions
        Kohn-Sham Wavefunctions        38.58 Mb     (    5267,  480)
        NL pseudopotentials            76.03 Mb     (    5267,  946)
        Each V/rho on FFT grid          3.91 Mb     (  256000)
        Each G-vector array             0.90 Mb     (  118520)
        G-vector shells                 0.08 Mb     (   10286)
     Largest temporary arrays     est. size (Mb)     dimensions
        Auxiliary wavefunctions       154.31 Mb     (    5267, 1920)
        Each subspace H/S matrix       56.25 Mb     (    1920, 1920)
        Each <psi_i|beta_j> matrix      6.93 Mb     (     946,  480)
        Arrays for rho mixing          31.25 Mb     (  256000,    8)

     Initial potential from superposition of free atoms
     Check: negative starting charge=   -1.945272

     starting charge  799.16392, renormalised to  800.00000

     negative rho (up, down):  1.947E+00 0.000E+00
     Starting wfc are  654 randomized atomic wfcs

     total cpu time spent up to now is      158.6 secs

     Self-consistent Calculation

     iteration #  1     ecut=    50.00 Ry     beta=0.70
     Davidson diagonalization with overlap
     ethr =  1.00E-02,  avg # of iterations =  3.0

     Threshold (ethr) on eigenvalues was too large:
     Diagonalizing with lowered threshold

     Davidson diagonalization with overlap
     ethr =  4.78E-04,  avg # of iterations =  2.0

     negative rho (up, down):  1.932E+00 0.000E+00

     total cpu time spent up to now is      694.5 secs

     total energy              =   -7377.50000172 Ry
     Harris-Foulkes estimate   =   -7380.92147695 Ry
     estimated scf accuracy    <       4.35514116 Ry

     iteration #  2     ecut=    50.00 Ry     beta=0.70
     Davidson diagonalization with overlap
     ethr =  5.44E-04,  avg # of iterations = 11.3

     negative rho (up, down):  1.930E+00 0.000E+00

     total cpu time spent up to now is     1516.9 secs

     total energy              =   -7369.45387547 Ry
     Harris-Foulkes estimate   =   -7387.59496626 Ry
     estimated scf accuracy    <      92.08867788 Ry

     iteration #  3     ecut=    50.00 Ry     beta=0.70
     Davidson diagonalization with overlap
     ethr =  5.44E-04,  avg # of iterations =  6.0

     negative rho (up, down):  1.946E+00 0.000E+00

     total cpu time spent up to now is     2074.4 secs

     total energy              =   -7378.60460104 Ry
     Harris-Foulkes estimate   =   -7380.73298185 Ry
     estimated scf accuracy    <       8.42445655 Ry

     iteration #  4     ecut=    50.00 Ry     beta=0.70
     Davidson diagonalization with overlap
     ethr =  5.44E-04,  avg # of iterations =  6.0

     negative rho (up, down):  1.951E+00 0.000E+00

     total cpu time spent up to now is     2389.0 secs

     total energy              =   -7379.36831283 Ry
     Harris-Foulkes estimate   =   -7380.48384555 Ry
     estimated scf accuracy    <       5.85989267 Ry

     iteration #  5     ecut=    50.00 Ry     beta=0.70
     Davidson diagonalization with overlap
     ethr =  5.44E-04,  avg # of iterations =  5.8

     negative rho (up, down):  1.959E+00 0.000E+00

     total cpu time spent up to now is     2688.7 secs

     total energy              =   -7379.65222466 Ry
     Harris-Foulkes estimate   =   -7380.38798711 Ry
     estimated scf accuracy    <       5.72282156 Ry

     iteration #  6     ecut=    50.00 Ry     beta=0.70
     Davidson diagonalization with overlap
     ethr =  5.44E-04,  avg # of iterations =  3.0

     negative rho (up, down):  1.962E+00 0.000E+00

     total cpu time spent up to now is     2967.9 secs

     total energy              =   -7379.95295415 Ry
     Harris-Foulkes estimate   =   -7380.03743703 Ry
     estimated scf accuracy    <       0.32867643 Ry

     iteration #  7     ecut=    50.00 Ry     beta=0.70
     Davidson diagonalization with overlap
     ethr =  4.11E-05,  avg # of iterations =  5.5

     negative rho (up, down):  1.966E+00 0.000E+00

     total cpu time spent up to now is     3274.2 secs

     total energy              =   -7379.97026761 Ry
     Harris-Foulkes estimate   =   -7380.02338552 Ry
     estimated scf accuracy    <       0.29163016 Ry

     iteration #  8     ecut=    50.00 Ry     beta=0.70
     Davidson diagonalization with overlap
     ethr =  3.65E-05,  avg # of iterations =  3.0

     negative rho (up, down):  1.968E+00 0.000E+00

     total cpu time spent up to now is     3528.3 secs

     total energy              =   -7379.97893060 Ry
     Harris-Foulkes estimate   =   -7380.00258649 Ry
     estimated scf accuracy    <       0.10333917 Ry

     iteration #  9     ecut=    50.00 Ry     beta=0.70
     Davidson diagonalization with overlap
     ethr =  1.29E-05,  avg # of iterations =  7.2

     negative rho (up, down):  1.969E+00 0.000E+00

     total cpu time spent up to now is     3856.0 secs

     total energy              =   -7379.97941975 Ry
     Harris-Foulkes estimate   =   -7379.99149519 Ry
     estimated scf accuracy    <       0.04080090 Ry

     iteration # 10     ecut=    50.00 Ry     beta=0.70
     Davidson diagonalization with overlap
     c_bands:  1 eigenvalues not converged
     c_bands:  1 eigenvalues not converged
     ethr =  5.10E-06,  avg # of iterations = 10.3

     negative rho (up, down):  1.969E+00 0.000E+00

     total cpu time spent up to now is     4179.6 secs

     total energy              =   -7379.98070032 Ry
     Harris-Foulkes estimate   =   -7379.98460179 Ry
     estimated scf accuracy    <       0.01090762 Ry

     iteration # 11     ecut=    50.00 Ry     beta=0.70
     Davidson diagonalization with overlap
     c_bands:  1 eigenvalues not converged
     c_bands:  2 eigenvalues not converged
     ethr =  1.36E-06,  avg # of iterations =  9.0

     negative rho (up, down):  1.970E+00 0.000E+00

     total cpu time spent up to now is     4552.0 secs

     total energy              =   -7379.98126788 Ry
     Harris-Foulkes estimate   =   -7379.98283867 Ry
     estimated scf accuracy    <       0.00454337 Ry

     iteration # 12     ecut=    50.00 Ry     beta=0.70
     Davidson diagonalization with overlap
     ethr =  5.68E-07,  avg # of iterations =  3.2

     negative rho (up, down):  1.971E+00 0.000E+00

     total cpu time spent up to now is     4821.6 secs

     total energy              =   -7379.98136949 Ry
     Harris-Foulkes estimate   =   -7379.98208495 Ry
     estimated scf accuracy    <       0.00154958 Ry

     iteration # 13     ecut=    50.00 Ry     beta=0.70
     Davidson diagonalization with overlap
     ethr =  1.94E-07,  avg # of iterations =  3.7

     negative rho (up, down):  1.971E+00 0.000E+00

     total cpu time spent up to now is     5150.6 secs

     total energy              =   -7379.98085799 Ry
     Harris-Foulkes estimate   =   -7379.98284647 Ry
     estimated scf accuracy    <       0.01020813 Ry

     iteration # 14     ecut=    50.00 Ry     beta=0.70
     Davidson diagonalization with overlap
     ethr =  1.94E-07,  avg # of iterations =  3.0

     negative rho (up, down):  1.970E+00 0.000E+00

     total cpu time spent up to now is     5491.4 secs

     total energy              =   -7379.98175262 Ry
     Harris-Foulkes estimate   =   -7379.98187767 Ry
     estimated scf accuracy    <       0.00042548 Ry

     iteration # 15     ecut=    50.00 Ry     beta=0.70
     Davidson diagonalization with overlap
     ethr =  5.32E-08,  avg # of iterations =  2.0

     negative rho (up, down):  1.970E+00 0.000E+00

     total cpu time spent up to now is     5755.6 secs

     total energy              =   -7379.98170496 Ry
     Harris-Foulkes estimate   =   -7379.98191960 Ry
     estimated scf accuracy    <       0.00124396 Ry

     iteration # 16     ecut=    50.00 Ry     beta=0.70
     Davidson diagonalization with overlap
     ethr =  5.32E-08,  avg # of iterations =  2.0

     negative rho (up, down):  1.970E+00 0.000E+00

     total cpu time spent up to now is     6015.6 secs

     total energy              =   -7379.98166765 Ry
     Harris-Foulkes estimate   =   -7379.98201765 Ry
     estimated scf accuracy    <       0.00277673 Ry

     iteration # 17     ecut=    50.00 Ry     beta=0.70
     Davidson diagonalization with overlap
     ethr =  5.32E-08,  avg # of iterations =  2.0

     negative rho (up, down):  1.970E+00 0.000E+00

     total cpu time spent up to now is     6301.8 secs

     total energy              =   -7379.98182799 Ry
     Harris-Foulkes estimate   =   -7379.98184396 Ry
     estimated scf accuracy    <       0.00006485 Ry

     iteration # 18     ecut=    50.00 Ry     beta=0.70
     Davidson diagonalization with overlap
     ethr =  8.11E-09,  avg # of iterations =  2.0

     negative rho (up, down):  1.970E+00 0.000E+00

     total cpu time spent up to now is     6554.2 secs

     total energy              =   -7379.98183678 Ry
     Harris-Foulkes estimate   =   -7379.98183994 Ry
     estimated scf accuracy    <       0.00001400 Ry

     iteration # 19     ecut=    50.00 Ry     beta=0.70
     Davidson diagonalization with overlap
     ethr =  1.75E-09,  avg # of iterations =  2.0

     negative rho (up, down):  1.970E+00 0.000E+00

     total cpu time spent up to now is     6787.0 secs

     total energy              =   -7379.98183832 Ry
     Harris-Foulkes estimate   =   -7379.98183908 Ry
     estimated scf accuracy    <       0.00000188 Ry

     iteration # 20     ecut=    50.00 Ry     beta=0.70
     Davidson diagonalization with overlap
     ethr =  2.35E-10,  avg # of iterations =  3.0

     negative rho (up, down):  1.970E+00 0.000E+00

     total cpu time spent up to now is     7140.9 secs

     total energy              =   -7379.98183858 Ry
     Harris-Foulkes estimate   =   -7379.98183898 Ry
     estimated scf accuracy    <       0.00000135 Ry

     iteration # 21     ecut=    50.00 Ry     beta=0.70
     Davidson diagonalization with overlap
     ethr =  1.69E-10,  avg # of iterations =  2.0

     negative rho (up, down):  1.970E+00 0.000E+00

     total cpu time spent up to now is     7388.8 secs

     total energy              =   -7379.98183869 Ry
     Harris-Foulkes estimate   =   -7379.98183890 Ry
     estimated scf accuracy    <       0.00000074 Ry

     iteration # 22     ecut=    50.00 Ry     beta=0.70
     Davidson diagonalization with overlap
     ethr =  9.24E-11,  avg # of iterations =  2.0

     negative rho (up, down):  1.970E+00 0.000E+00

     total cpu time spent up to now is     7627.5 secs

     total energy              =   -7379.98183876 Ry
     Harris-Foulkes estimate   =   -7379.98183885 Ry
     estimated scf accuracy    <       0.00000031 Ry

     iteration # 23     ecut=    50.00 Ry     beta=0.70
     Davidson diagonalization with overlap
     ethr =  3.82E-11,  avg # of iterations =  2.0

     negative rho (up, down):  1.970E+00 0.000E+00

     total cpu time spent up to now is     7899.3 secs

     total energy              =   -7379.98183877 Ry
     Harris-Foulkes estimate   =   -7379.98183884 Ry
     estimated scf accuracy    <       0.00000031 Ry

     iteration # 24     ecut=    50.00 Ry     beta=0.70
     Davidson diagonalization with overlap
     ethr =  3.82E-11,  avg # of iterations =  2.0

     negative rho (up, down):  1.970E+00 0.000E+00

     total cpu time spent up to now is     8213.2 secs

     total energy              =   -7379.98183881 Ry
     Harris-Foulkes estimate   =   -7379.98183882 Ry
     estimated scf accuracy    <       0.00000008 Ry

     iteration # 25     ecut=    50.00 Ry     beta=0.70
     Davidson diagonalization with overlap
     ethr =  1.01E-11,  avg # of iterations =  2.0

     negative rho (up, down):  1.970E+00 0.000E+00

     total cpu time spent up to now is     8459.0 secs

     total energy              =   -7379.98183881 Ry
     Harris-Foulkes estimate   =   -7379.98183882 Ry
     estimated scf accuracy    <       0.00000003 Ry

     iteration # 26     ecut=    50.00 Ry     beta=0.70
     Davidson diagonalization with overlap
     ethr =  3.41E-12,  avg # of iterations =  2.0

     negative rho (up, down):  1.970E+00 0.000E+00

     total cpu time spent up to now is     8720.7 secs

     total energy              =   -7379.98183881 Ry
     Harris-Foulkes estimate   =   -7379.98183882 Ry
     estimated scf accuracy    <       0.00000001 Ry

     iteration # 27     ecut=    50.00 Ry     beta=0.70
     Davidson diagonalization with overlap
     ethr =  1.51E-12,  avg # of iterations =  3.0

     negative rho (up, down):  1.970E+00 0.000E+00

     total cpu time spent up to now is     8979.8 secs

     total energy              =   -7379.98183881 Ry
     Harris-Foulkes estimate   =   -7379.98183882 Ry
     estimated scf accuracy    <       0.00000001 Ry

     iteration # 28     ecut=    50.00 Ry     beta=0.70
     Davidson diagonalization with overlap
     ethr =  1.51E-12,  avg # of iterations =  2.0

     negative rho (up, down):  1.970E+00 0.000E+00

     total cpu time spent up to now is     9229.6 secs

     End of self-consistent calculation

          k = 0.2500 0.2500 0.0833 (167653 PWs)   bands (ev):

   -19.0847  -6.9735  -6.9419  -6.4129  -6.4090  -5.9731  -5.5741  -5.4720
    -5.4697  -5.2491  -5.2478  -5.1609  -5.1502  -5.0203  -5.0108  -4.9013
    -4.8131  -4.8082  -4.7883  -4.7872  -4.6101  -4.6058  -4.6045  -4.5790
    -4.5754  -4.5732  -4.5694  -4.5224  -4.5158  -4.5144  -4.5132  -4.4503
    -4.4221  -4.4217  -4.3757  -4.3618  -4.3603  -4.3301  -4.3239  -4.3107
    -4.3055  -4.2871  -4.2869  -4.2553  -4.2182  -4.2170  -4.2163  -4.2117
    -4.2112  -4.1834  -4.1573  -4.1538  -4.1218  -4.1206  -4.1184  -4.1178
    -4.1152  -4.1087  -4.0920  -4.0765  -4.0187  -4.0159  -3.9873  -3.9611
    -3.9542  -3.9483  -3.9481  -3.9252  -3.9247  -3.9147  -3.8633  -3.8624
    -3.8605  -3.8564  -3.7847  -3.7706  -3.7575  -3.7486  -3.7265  -3.7145
    -3.6970  -3.6739  -3.6731  -3.6302  -3.6286  -3.6279  -3.6270  -3.6072
    -3.6010  -3.5428  -3.5207  -3.5205  -3.5034  -3.4990  -3.4882  -3.4754
    -3.4739  -3.4689  -3.4679  -3.4602  -3.4239  -3.4218  -3.4020  -3.3834
    -3.3643  -3.3429  -3.3291  -3.3173  -3.2960  -3.2723  -3.2706  -3.2343
    -3.2105  -3.2095  -3.2090  -3.2061  -3.2047  -3.1930  -3.1671  -3.1591
    -3.1314  -3.1307  -3.1100  -3.0854  -3.0830  -3.0821  -3.0766  -3.0749
    -3.0717  -3.0713  -3.0377  -3.0359  -3.0347  -3.0293  -3.0256  -3.0204
    -2.9673  -2.9672  -2.9609  -2.9587  -2.9374  -2.9360  -2.9303  -2.8419
    -2.8348  -2.8324  -2.8268  -2.8226  -2.8175  -2.8165  -2.8153  -2.8072
    -2.8059  -2.7966  -2.7885  -2.7848  -2.7807  -2.7794  -2.7714  -2.7642
    -2.7634  -2.7424  -2.7302  -2.7299  -2.7161  -2.7152  -2.6986  -2.6937
    -2.6894  -2.6885  -2.6681  -2.6570  -2.6540  -2.6504  -2.6456  -2.6155
    -2.6140  -2.6075  -2.5575  -2.5514  -2.5391  -2.5383  -2.5256  -2.5236
    -2.5022  -2.4988  -2.4950  -2.4837  -2.4830  -2.4709  -2.4704  -2.4575
    -2.4537  -2.4281  -2.4275  -2.4180  -2.4175  -2.4087  -2.4068  -2.3903
    -2.3737  -2.3518  -2.2905  -2.2881  -2.2679  -2.2658  -2.2552  -2.2493
    -2.2037  -2.2027  -2.1858  -2.1702  -2.1586  -2.1563  -2.1386  -2.1218
    -2.1186  -2.1080  -2.1016  -2.0827  -2.0761  -2.0642  -2.0567  -2.0557
    -2.0516  -2.0498  -2.0422  -2.0209  -2.0175  -2.0169  -2.0147  -2.0142
    -2.0114  -2.0101  -1.9982  -1.9796  -1.9758  -1.9755  -1.9682  -1.9579
    -1.9551  -1.9542  -1.9507  -1.9467  -1.9458  -1.9088  -1.9071  -1.8659
    -1.8484  -1.8459  -1.8015  -1.8012  -1.8007  -1.7924  -1.7888  -1.7764
    -1.7750  -1.7697  -1.7679  -1.7571  -1.7518  -1.7414  -1.7369  -1.7014
    -1.6997  -1.6817  -1.6621  -1.6611  -1.6241  -1.6210  -1.5709  -1.5697
    -1.5537  -1.5322  -1.5285  -1.5228  -1.5219  -1.5203  -1.5110  -1.5006
    -1.4978  -1.4962  -1.4936  -1.4929  -1.4916  -1.4914  -1.4870  -1.4642
    -1.4608  -1.4434  -1.4323  -1.4300  -1.4132  -1.4087  -1.4032  -1.4021
    -1.4002  -1.3899  -1.3645  -1.3615  -1.3412  -1.3342  -1.3333  -1.3166
    -1.3072  -1.3060  -1.2757  -1.2752  -1.2685  -1.2650  -1.2546  -1.2317
    -1.2250  -1.2173  -1.2153  -1.2144  -1.1944  -1.1907  -1.1849  -1.1759
    -1.1700  -1.1624  -1.1573  -1.1538  -1.1526  -1.1432  -1.1374  -1.1338
    -1.1253  -1.1249  -1.1218  -1.1156  -1.1120  -1.0982  -1.0632  -1.0584
    -1.0542  -1.0515  -1.0506  -1.0468  -1.0365  -1.0185  -1.0063  -0.9888
    -0.9858  -0.9855  -0.9780  -0.9702  -0.9649  -0.9613  -0.9539  -0.9253
    -0.9139  -0.9137  -0.9027  -0.8945  -0.8929  -0.8783  -0.8547  -0.8457
    -0.8302  -0.8271  -0.7910  -0.7900  -0.7891  -0.7848  -0.7827  -0.7808
    -0.7795  -0.7784  -0.7730  -0.7725  -0.7416  -0.7393  -0.7380  -0.7347
    -0.7346  -0.7238  -0.7220  -0.7107  -0.6940  -0.4392  -0.4216  -0.3771
    -0.3697  -0.3479  -0.2895  -0.1382  -0.1368  -0.0939   0.1764   0.1839
     0.5202   0.5272   0.5600   0.5651   0.6125   0.6139   0.7700   0.7799
     0.8997   0.9039   1.0245   1.5149   1.5532   1.5595   1.5928   1.5963
     1.7353   1.7373   1.7836   1.7929   1.9650   1.9727   2.2631   2.2826
     2.2845   2.3041   2.7390   2.7433   2.7579   2.7639   2.7773   2.7796
     2.8399   2.8461   3.0102   3.1128   3.1272   3.2987   3.3146   3.4184
     3.4844   3.4943   3.7823   3.7950   3.8479   3.8502   3.8565   3.9879
     3.9957   4.0265   4.0314   4.2808   4.2949   4.3314   4.3362   4.4385
     4.4465   4.5136   4.5190   4.8111   5.3797   5.3885   5.4884   5.4911
     5.5892   5.6019   5.6706   5.6790   5.6801   5.6862   5.7839   5.8076
     5.8430   6.0116   6.0723   6.0788   6.0980   6.1041   6.1045   6.1212
     6.2218   6.2298   6.2963   6.3169   6.4269   6.4349   6.4443   6.4614

          k = 0.2500 0.2500-0.2500 (167588 PWs)   bands (ev):

   -19.0847  -6.9735  -6.9419  -6.4129  -6.4090  -5.9731  -5.5741  -5.4720
    -5.4697  -5.2491  -5.2478  -5.1609  -5.1502  -5.0203  -5.0108  -4.9013
    -4.8131  -4.8082  -4.7883  -4.7872  -4.6101  -4.6058  -4.6045  -4.5790
    -4.5754  -4.5732  -4.5694  -4.5224  -4.5158  -4.5144  -4.5132  -4.4503
    -4.4221  -4.4217  -4.3757  -4.3618  -4.3603  -4.3301  -4.3238  -4.3107
    -4.3055  -4.2871  -4.2869  -4.2553  -4.2182  -4.2170  -4.2163  -4.2117
    -4.2112  -4.1834  -4.1573  -4.1538  -4.1218  -4.1206  -4.1184  -4.1178
    -4.1152  -4.1087  -4.0920  -4.0765  -4.0187  -4.0159  -3.9873  -3.9611
    -3.9542  -3.9483  -3.9481  -3.9252  -3.9247  -3.9147  -3.8633  -3.8624
    -3.8605  -3.8564  -3.7847  -3.7706  -3.7575  -3.7486  -3.7265  -3.7145
    -3.6970  -3.6739  -3.6731  -3.6302  -3.6286  -3.6279  -3.6270  -3.6072
    -3.6010  -3.5428  -3.5207  -3.5205  -3.5034  -3.4990  -3.4882  -3.4754
    -3.4739  -3.4689  -3.4679  -3.4602  -3.4239  -3.4218  -3.4020  -3.3834
    -3.3643  -3.3429  -3.3291  -3.3173  -3.2960  -3.2723  -3.2706  -3.2343
    -3.2105  -3.2095  -3.2090  -3.2061  -3.2047  -3.1930  -3.1671  -3.1591
    -3.1314  -3.1307  -3.1100  -3.0854  -3.0830  -3.0821  -3.0766  -3.0749
    -3.0717  -3.0713  -3.0377  -3.0359  -3.0347  -3.0293  -3.0256  -3.0204
    -2.9673  -2.9672  -2.9609  -2.9587  -2.9374  -2.9360  -2.9303  -2.8419
    -2.8348  -2.8324  -2.8268  -2.8226  -2.8175  -2.8165  -2.8153  -2.8072
    -2.8059  -2.7966  -2.7885  -2.7848  -2.7807  -2.7794  -2.7714  -2.7642
    -2.7634  -2.7424  -2.7302  -2.7299  -2.7160  -2.7152  -2.6986  -2.6937
    -2.6894  -2.6885  -2.6681  -2.6570  -2.6540  -2.6504  -2.6456  -2.6155
    -2.6140  -2.6075  -2.5575  -2.5514  -2.5391  -2.5383  -2.5256  -2.5236
    -2.5022  -2.4988  -2.4950  -2.4837  -2.4830  -2.4709  -2.4704  -2.4575
    -2.4537  -2.4281  -2.4275  -2.4180  -2.4175  -2.4087  -2.4068  -2.3903
    -2.3737  -2.3518  -2.2905  -2.2881  -2.2678  -2.2658  -2.2552  -2.2493
    -2.2037  -2.2027  -2.1858  -2.1702  -2.1586  -2.1563  -2.1386  -2.1218
    -2.1186  -2.1080  -2.1016  -2.0827  -2.0761  -2.0642  -2.0567  -2.0557
    -2.0516  -2.0498  -2.0422  -2.0209  -2.0175  -2.0169  -2.0147  -2.0142
    -2.0114  -2.0101  -1.9982  -1.9796  -1.9758  -1.9755  -1.9682  -1.9579
    -1.9551  -1.9542  -1.9507  -1.9467  -1.9458  -1.9088  -1.9071  -1.8659
    -1.8484  -1.8459  -1.8015  -1.8012  -1.8007  -1.7924  -1.7888  -1.7764
    -1.7750  -1.7697  -1.7679  -1.7571  -1.7518  -1.7414  -1.7369  -1.7014
    -1.6997  -1.6817  -1.6621  -1.6611  -1.6241  -1.6210  -1.5709  -1.5697
    -1.5537  -1.5322  -1.5285  -1.5228  -1.5219  -1.5204  -1.5110  -1.5006
    -1.4978  -1.4962  -1.4936  -1.4930  -1.4916  -1.4914  -1.4870  -1.4642
    -1.4608  -1.4434  -1.4323  -1.4300  -1.4132  -1.4087  -1.4032  -1.4021
    -1.4002  -1.3899  -1.3645  -1.3615  -1.3412  -1.3342  -1.3333  -1.3166
    -1.3072  -1.3060  -1.2757  -1.2752  -1.2685  -1.2650  -1.2546  -1.2317
    -1.2250  -1.2173  -1.2153  -1.2144  -1.1944  -1.1907  -1.1849  -1.1759
    -1.1700  -1.1624  -1.1573  -1.1538  -1.1526  -1.1432  -1.1374  -1.1338
    -1.1253  -1.1249  -1.1218  -1.1156  -1.1120  -1.0982  -1.0632  -1.0584
    -1.0542  -1.0515  -1.0506  -1.0468  -1.0365  -1.0185  -1.0063  -0.9888
    -0.9858  -0.9855  -0.9780  -0.9702  -0.9649  -0.9613  -0.9539  -0.9253
    -0.9139  -0.9137  -0.9027  -0.8945  -0.8929  -0.8783  -0.8547  -0.8457
    -0.8302  -0.8271  -0.7910  -0.7900  -0.7891  -0.7849  -0.7827  -0.7808
    -0.7795  -0.7784  -0.7730  -0.7725  -0.7416  -0.7393  -0.7380  -0.7347
    -0.7346  -0.7238  -0.7220  -0.7107  -0.6940  -0.4392  -0.4216  -0.3771
    -0.3697  -0.3479  -0.2895  -0.1382  -0.1368  -0.0939   0.1764   0.1839
     0.5202   0.5272   0.5600   0.5651   0.6125   0.6139   0.7700   0.7799
     0.8997   0.9039   1.0245   1.5149   1.5532   1.5595   1.5928   1.5963
     1.7353   1.7374   1.7836   1.7929   1.9650   1.9727   2.2631   2.2826
     2.2845   2.3041   2.7390   2.7433   2.7579   2.7639   2.7773   2.7796
     2.8398   2.8461   3.0102   3.1128   3.1272   3.2987   3.3146   3.4184
     3.4844   3.4943   3.7823   3.7950   3.8479   3.8502   3.8565   3.9879
     3.9957   4.0265   4.0314   4.2808   4.2949   4.3314   4.3362   4.4385
     4.4465   4.5136   4.5190   4.8112   5.3797   5.3885   5.4885   5.4912
     5.5892   5.6019   5.6706   5.6790   5.6801   5.6862   5.7756   5.7977
     5.8078   6.0704   6.0788   6.0980   6.1040   6.1044   6.1207   6.1754
     6.1800   6.1932   6.2966   6.3172   6.4095   6.4304   6.4339   6.4877

          k =-0.2500-0.2500 0.0833 (167653 PWs)   bands (ev):

   -19.0847  -6.9735  -6.9419  -6.4129  -6.4090  -5.9731  -5.5741  -5.4720
    -5.4697  -5.2491  -5.2478  -5.1609  -5.1502  -5.0203  -5.0108  -4.9013
    -4.8131  -4.8082  -4.7883  -4.7872  -4.6101  -4.6058  -4.6045  -4.5790
    -4.5754  -4.5732  -4.5694  -4.5224  -4.5158  -4.5144  -4.5132  -4.4503
    -4.4221  -4.4217  -4.3757  -4.3618  -4.3603  -4.3301  -4.3239  -4.3107
    -4.3055  -4.2871  -4.2869  -4.2553  -4.2182  -4.2170  -4.2163  -4.2117
    -4.2112  -4.1834  -4.1573  -4.1538  -4.1218  -4.1206  -4.1184  -4.1178
    -4.1152  -4.1087  -4.0920  -4.0765  -4.0187  -4.0159  -3.9873  -3.9611
    -3.9542  -3.9483  -3.9481  -3.9252  -3.9247  -3.9147  -3.8633  -3.8624
    -3.8605  -3.8564  -3.7847  -3.7706  -3.7575  -3.7486  -3.7265  -3.7145
    -3.6970  -3.6739  -3.6731  -3.6302  -3.6286  -3.6279  -3.6270  -3.6072
    -3.6010  -3.5428  -3.5207  -3.5205  -3.5034  -3.4990  -3.4882  -3.4754
    -3.4739  -3.4689  -3.4679  -3.4602  -3.4239  -3.4218  -3.4020  -3.3834
    -3.3643  -3.3429  -3.3291  -3.3173  -3.2960  -3.2723  -3.2706  -3.2343
    -3.2105  -3.2095  -3.2090  -3.2061  -3.2047  -3.1930  -3.1671  -3.1591
    -3.1314  -3.1307  -3.1100  -3.0854  -3.0830  -3.0821  -3.0766  -3.0749
    -3.0717  -3.0713  -3.0377  -3.0359  -3.0347  -3.0293  -3.0256  -3.0204
    -2.9673  -2.9672  -2.9609  -2.9587  -2.9374  -2.9360  -2.9303  -2.8419
    -2.8348  -2.8324  -2.8268  -2.8226  -2.8175  -2.8165  -2.8153  -2.8072
    -2.8059  -2.7966  -2.7885  -2.7848  -2.7807  -2.7794  -2.7714  -2.7642
    -2.7634  -2.7424  -2.7302  -2.7299  -2.7161  -2.7152  -2.6986  -2.6937
    -2.6894  -2.6885  -2.6681  -2.6570  -2.6540  -2.6504  -2.6456  -2.6155
    -2.6140  -2.6075  -2.5575  -2.5514  -2.5391  -2.5383  -2.5256  -2.5236
    -2.5022  -2.4988  -2.4950  -2.4837  -2.4830  -2.4709  -2.4704  -2.4575
    -2.4537  -2.4281  -2.4275  -2.4180  -2.4175  -2.4087  -2.4068  -2.3903
    -2.3737  -2.3518  -2.2905  -2.2881  -2.2679  -2.2658  -2.2552  -2.2493
    -2.2037  -2.2027  -2.1858  -2.1702  -2.1586  -2.1563  -2.1386  -2.1218
    -2.1186  -2.1080  -2.1016  -2.0827  -2.0761  -2.0642  -2.0567  -2.0557
    -2.0516  -2.0498  -2.0422  -2.0209  -2.0175  -2.0169  -2.0147  -2.0142
    -2.0114  -2.0101  -1.9982  -1.9796  -1.9758  -1.9755  -1.9682  -1.9579
    -1.9551  -1.9542  -1.9507  -1.9467  -1.9458  -1.9088  -1.9071  -1.8659
    -1.8484  -1.8459  -1.8015  -1.8012  -1.8007  -1.7924  -1.7888  -1.7764
    -1.7750  -1.7697  -1.7679  -1.7571  -1.7518  -1.7414  -1.7369  -1.7014
    -1.6997  -1.6817  -1.6621  -1.6611  -1.6241  -1.6210  -1.5709  -1.5697
    -1.5537  -1.5322  -1.5285  -1.5228  -1.5219  -1.5203  -1.5110  -1.5006
    -1.4978  -1.4962  -1.4936  -1.4929  -1.4916  -1.4914  -1.4870  -1.4642
    -1.4608  -1.4434  -1.4323  -1.4300  -1.4132  -1.4087  -1.4032  -1.4021
    -1.4002  -1.3899  -1.3645  -1.3615  -1.3412  -1.3342  -1.3333  -1.3166
    -1.3072  -1.3060  -1.2757  -1.2752  -1.2685  -1.2650  -1.2546  -1.2317
    -1.2250  -1.2173  -1.2153  -1.2144  -1.1944  -1.1907  -1.1849  -1.1759
    -1.1700  -1.1624  -1.1573  -1.1538  -1.1526  -1.1432  -1.1374  -1.1338
    -1.1253  -1.1249  -1.1218  -1.1156  -1.1120  -1.0982  -1.0632  -1.0584
    -1.0542  -1.0515  -1.0506  -1.0468  -1.0365  -1.0185  -1.0063  -0.9888
    -0.9858  -0.9855  -0.9780  -0.9702  -0.9649  -0.9613  -0.9539  -0.9253
    -0.9139  -0.9137  -0.9027  -0.8945  -0.8929  -0.8783  -0.8547  -0.8457
    -0.8302  -0.8271  -0.7910  -0.7900  -0.7891  -0.7848  -0.7827  -0.7808
    -0.7795  -0.7784  -0.7730  -0.7725  -0.7416  -0.7393  -0.7380  -0.7347
    -0.7346  -0.7238  -0.7220  -0.7107  -0.6940  -0.4392  -0.4216  -0.3771
    -0.3697  -0.3479  -0.2895  -0.1382  -0.1368  -0.0939   0.1764   0.1839
     0.5202   0.5272   0.5600   0.5651   0.6125   0.6139   0.7700   0.7799
     0.8997   0.9039   1.0245   1.5149   1.5532   1.5595   1.5928   1.5963
     1.7353   1.7373   1.7836   1.7929   1.9650   1.9727   2.2631   2.2826
     2.2845   2.3041   2.7390   2.7433   2.7579   2.7639   2.7773   2.7796
     2.8399   2.8461   3.0102   3.1128   3.1272   3.2987   3.3146   3.4184
     3.4844   3.4943   3.7823   3.7950   3.8479   3.8502   3.8565   3.9879
     3.9957   4.0265   4.0314   4.2808   4.2949   4.3314   4.3362   4.4385
     4.4465   4.5136   4.5190   4.8111   5.3797   5.3885   5.4884   5.4911
     5.5892   5.6019   5.6706   5.6790   5.6801   5.6862   5.7839   5.8076
     5.8430   6.0116   6.0722   6.0788   6.0980   6.1041   6.1045   6.1212
     6.2218   6.2298   6.2963   6.3169   6.4269   6.4349   6.4443   6.4614

          k =-0.2500 0.2500-0.0833 (167653 PWs)   bands (ev):

   -19.0847  -6.9760  -6.9389  -6.4126  -6.4102  -5.9725  -5.5740  -5.4714
    -5.4698  -5.2491  -5.2486  -5.1604  -5.1512  -5.0199  -5.0105  -4.9009
    -4.8137  -4.8083  -4.7886  -4.7874  -4.6106  -4.6054  -4.6045  -4.5792
    -4.5750  -4.5738  -4.5693  -4.5217  -4.5162  -4.5141  -4.5134  -4.4499
    -4.4220  -4.4218  -4.3763  -4.3617  -4.3603  -4.3286  -4.3235  -4.3104
    -4.3055  -4.2870  -4.2869  -4.2573  -4.2184  -4.2176  -4.2165  -4.2113
    -4.2112  -4.1834  -4.1553  -4.1542  -4.1227  -4.1205  -4.1181  -4.1173
    -4.1157  -4.1090  -4.0886  -4.0760  -4.0177  -4.0163  -3.9871  -3.9613
    -3.9559  -3.9485  -3.9472  -3.9252  -3.9244  -3.9141  -3.8637  -3.8626
    -3.8616  -3.8565  -3.7863  -3.7710  -3.7547  -3.7487  -3.7266  -3.7144
    -3.6970  -3.6746  -3.6738  -3.6316  -3.6290  -3.6281  -3.6264  -3.6133
    -3.6013  -3.5469  -3.5211  -3.5203  -3.5037  -3.4984  -3.4882  -3.4749
    -3.4739  -3.4692  -3.4685  -3.4510  -3.4243  -3.4204  -3.4014  -3.3838
    -3.3637  -3.3412  -3.3350  -3.3175  -3.2906  -3.2709  -3.2675  -3.2352
    -3.2103  -3.2099  -3.2087  -3.2059  -3.2046  -3.1968  -3.1672  -3.1630
    -3.1311  -3.1308  -3.1097  -3.0855  -3.0835  -3.0818  -3.0769  -3.0746
    -3.0720  -3.0713  -3.0378  -3.0361  -3.0344  -3.0291  -3.0247  -3.0194
    -2.9660  -2.9658  -2.9616  -2.9586  -2.9370  -2.9357  -2.9327  -2.8419
    -2.8350  -2.8318  -2.8267  -2.8225  -2.8171  -2.8159  -2.8148  -2.8073
    -2.8057  -2.7973  -2.7887  -2.7846  -2.7807  -2.7784  -2.7712  -2.7637
    -2.7619  -2.7429  -2.7305  -2.7300  -2.7159  -2.7150  -2.6984  -2.6938
    -2.6891  -2.6886  -2.6681  -2.6562  -2.6556  -2.6503  -2.6417  -2.6163
    -2.6140  -2.6092  -2.5567  -2.5514  -2.5416  -2.5376  -2.5249  -2.5245
    -2.5019  -2.4980  -2.4954  -2.4837  -2.4829  -2.4732  -2.4712  -2.4586
    -2.4539  -2.4287  -2.4280  -2.4192  -2.4176  -2.4088  -2.4072  -2.3872
    -2.3750  -2.3517  -2.2917  -2.2868  -2.2669  -2.2656  -2.2555  -2.2493
    -2.2035  -2.2033  -2.1865  -2.1704  -2.1608  -2.1558  -2.1392  -2.1217
    -2.1180  -2.1083  -2.1006  -2.0813  -2.0729  -2.0644  -2.0570  -2.0556
    -2.0517  -2.0493  -2.0402  -2.0209  -2.0184  -2.0160  -2.0151  -2.0139
    -2.0108  -2.0102  -1.9991  -1.9810  -1.9762  -1.9758  -1.9676  -1.9587
    -1.9551  -1.9548  -1.9514  -1.9481  -1.9454  -1.9099  -1.9073  -1.8657
    -1.8481  -1.8475  -1.8015  -1.8010  -1.8007  -1.7892  -1.7882  -1.7748
    -1.7744  -1.7687  -1.7654  -1.7569  -1.7522  -1.7384  -1.7373  -1.7022
    -1.6984  -1.6819  -1.6702  -1.6611  -1.6238  -1.6181  -1.5736  -1.5689
    -1.5582  -1.5483  -1.5292  -1.5228  -1.5220  -1.5157  -1.5063  -1.4989
    -1.4978  -1.4965  -1.4932  -1.4926  -1.4918  -1.4899  -1.4857  -1.4646
    -1.4608  -1.4336  -1.4327  -1.4307  -1.4167  -1.4077  -1.4052  -1.4024
    -1.3980  -1.3838  -1.3614  -1.3569  -1.3400  -1.3340  -1.3307  -1.3178
    -1.3073  -1.3020  -1.2936  -1.2733  -1.2711  -1.2645  -1.2531  -1.2250
    -1.2193  -1.2183  -1.2167  -1.2142  -1.1929  -1.1881  -1.1845  -1.1735
    -1.1672  -1.1659  -1.1551  -1.1546  -1.1528  -1.1480  -1.1443  -1.1321
    -1.1277  -1.1241  -1.1207  -1.1161  -1.1114  -1.1005  -1.0875  -1.0553
    -1.0549  -1.0529  -1.0516  -1.0453  -1.0352  -1.0177  -1.0075  -0.9978
    -0.9855  -0.9807  -0.9779  -0.9760  -0.9704  -0.9605  -0.9301  -0.9259
    -0.9149  -0.9129  -0.9113  -0.8945  -0.8929  -0.8774  -0.8557  -0.8459
    -0.8309  -0.8269  -0.7908  -0.7901  -0.7871  -0.7848  -0.7829  -0.7801
    -0.7787  -0.7781  -0.7728  -0.7719  -0.7398  -0.7394  -0.7351  -0.7344
    -0.7335  -0.7258  -0.7210  -0.7103  -0.6932  -0.4385  -0.4218  -0.3744
    -0.3669  -0.3483  -0.2878  -0.1374  -0.1363  -0.1011   0.1776   0.1835
     0.5197   0.5247   0.5616   0.5643   0.6124   0.6154   0.7748   0.7841
     0.8993   0.9033   1.0233   1.5117   1.5458   1.5596   1.5940   1.5942
     1.7326   1.7456   1.7881   1.7896   1.9673   1.9706   2.2559   2.2784
     2.2860   2.3046   2.7304   2.7465   2.7604   2.7620   2.7770   2.7803
     2.8420   2.8448   3.0089   3.1272   3.1302   3.3129   3.3195   3.4146
     3.4868   3.4876   3.7912   3.7921   3.8326   3.8494   3.8542   3.9867
     3.9988   4.0175   4.0441   4.2884   4.2907   4.3253   4.3370   4.4376
     4.4472   4.4947   4.5175   4.8071   5.3933   5.3963   5.4708   5.5030
     5.5965   5.6023   5.6613   5.6781   5.6881   5.6901   5.8008   5.8092
     5.8411   6.0095   6.0723   6.0899   6.0950   6.1035   6.1065   6.1090
     6.2081   6.2342   6.2811   6.3225   6.4336   6.4430   6.4466   6.4584

          k = 0.2500-0.2500-0.0833 (167653 PWs)   bands (ev):

   -19.0847  -6.9760  -6.9389  -6.4126  -6.4102  -5.9725  -5.5740  -5.4714
    -5.4698  -5.2491  -5.2486  -5.1604  -5.1512  -5.0199  -5.0105  -4.9009
    -4.8137  -4.8083  -4.7886  -4.7874  -4.6106  -4.6054  -4.6045  -4.5792
    -4.5750  -4.5738  -4.5693  -4.5217  -4.5162  -4.5141  -4.5134  -4.4499
    -4.4220  -4.4218  -4.3763  -4.3617  -4.3603  -4.3286  -4.3235  -4.3104
    -4.3055  -4.2870  -4.2869  -4.2573  -4.2184  -4.2176  -4.2165  -4.2113
    -4.2112  -4.1834  -4.1553  -4.1542  -4.1227  -4.1205  -4.1181  -4.1173
    -4.1157  -4.1090  -4.0886  -4.0760  -4.0177  -4.0163  -3.9871  -3.9613
    -3.9559  -3.9485  -3.9472  -3.9252  -3.9244  -3.9141  -3.8637  -3.8626
    -3.8616  -3.8565  -3.7863  -3.7710  -3.7547  -3.7487  -3.7266  -3.7144
    -3.6970  -3.6746  -3.6738  -3.6316  -3.6290  -3.6281  -3.6264  -3.6133
    -3.6013  -3.5469  -3.5211  -3.5203  -3.5037  -3.4984  -3.4882  -3.4749
    -3.4739  -3.4692  -3.4685  -3.4510  -3.4243  -3.4204  -3.4014  -3.3838
    -3.3637  -3.3412  -3.3350  -3.3175  -3.2906  -3.2709  -3.2675  -3.2352
    -3.2103  -3.2099  -3.2087  -3.2059  -3.2046  -3.1968  -3.1672  -3.1630
    -3.1311  -3.1308  -3.1097  -3.0855  -3.0835  -3.0818  -3.0769  -3.0746
    -3.0720  -3.0713  -3.0378  -3.0361  -3.0344  -3.0291  -3.0247  -3.0194
    -2.9660  -2.9658  -2.9616  -2.9586  -2.9370  -2.9357  -2.9327  -2.8419
    -2.8350  -2.8318  -2.8267  -2.8225  -2.8171  -2.8159  -2.8148  -2.8073
    -2.8057  -2.7973  -2.7887  -2.7846  -2.7807  -2.7784  -2.7712  -2.7637
    -2.7619  -2.7429  -2.7305  -2.7300  -2.7159  -2.7150  -2.6984  -2.6938
    -2.6891  -2.6886  -2.6681  -2.6562  -2.6556  -2.6503  -2.6417  -2.6163
    -2.6140  -2.6092  -2.5567  -2.5514  -2.5416  -2.5376  -2.5249  -2.5245
    -2.5019  -2.4980  -2.4954  -2.4837  -2.4829  -2.4732  -2.4712  -2.4586
    -2.4539  -2.4287  -2.4280  -2.4192  -2.4176  -2.4088  -2.4072  -2.3872
    -2.3750  -2.3517  -2.2917  -2.2868  -2.2669  -2.2656  -2.2555  -2.2493
    -2.2035  -2.2033  -2.1865  -2.1704  -2.1608  -2.1558  -2.1392  -2.1217
    -2.1180  -2.1083  -2.1006  -2.0813  -2.0729  -2.0644  -2.0570  -2.0556
    -2.0517  -2.0493  -2.0402  -2.0209  -2.0184  -2.0160  -2.0151  -2.0139
    -2.0108  -2.0102  -1.9991  -1.9810  -1.9762  -1.9758  -1.9676  -1.9587
    -1.9551  -1.9548  -1.9514  -1.9481  -1.9454  -1.9099  -1.9073  -1.8657
    -1.8481  -1.8475  -1.8015  -1.8010  -1.8007  -1.7892  -1.7882  -1.7748
    -1.7744  -1.7687  -1.7654  -1.7569  -1.7522  -1.7384  -1.7373  -1.7022
    -1.6984  -1.6819  -1.6702  -1.6611  -1.6238  -1.6181  -1.5736  -1.5689
    -1.5582  -1.5483  -1.5292  -1.5228  -1.5220  -1.5157  -1.5063  -1.4989
    -1.4978  -1.4965  -1.4932  -1.4926  -1.4918  -1.4899  -1.4857  -1.4646
    -1.4608  -1.4336  -1.4327  -1.4307  -1.4167  -1.4077  -1.4052  -1.4024
    -1.3980  -1.3838  -1.3614  -1.3569  -1.3400  -1.3340  -1.3307  -1.3178
    -1.3073  -1.3020  -1.2936  -1.2733  -1.2711  -1.2645  -1.2531  -1.2250
    -1.2193  -1.2183  -1.2167  -1.2142  -1.1929  -1.1881  -1.1845  -1.1735
    -1.1672  -1.1659  -1.1551  -1.1546  -1.1528  -1.1480  -1.1443  -1.1321
    -1.1277  -1.1241  -1.1207  -1.1161  -1.1114  -1.1005  -1.0875  -1.0553
    -1.0549  -1.0529  -1.0516  -1.0453  -1.0352  -1.0177  -1.0075  -0.9978
    -0.9855  -0.9807  -0.9779  -0.9760  -0.9704  -0.9605  -0.9301  -0.9259
    -0.9149  -0.9129  -0.9113  -0.8945  -0.8929  -0.8774  -0.8557  -0.8459
    -0.8309  -0.8269  -0.7908  -0.7901  -0.7871  -0.7848  -0.7829  -0.7801
    -0.7787  -0.7781  -0.7728  -0.7719  -0.7398  -0.7394  -0.7351  -0.7344
    -0.7335  -0.7258  -0.7210  -0.7103  -0.6932  -0.4385  -0.4218  -0.3744
    -0.3669  -0.3483  -0.2878  -0.1374  -0.1363  -0.1011   0.1776   0.1835
     0.5197   0.5247   0.5616   0.5643   0.6124   0.6154   0.7748   0.7841
     0.8993   0.9033   1.0233   1.5117   1.5458   1.5596   1.5940   1.5942
     1.7326   1.7456   1.7881   1.7896   1.9673   1.9706   2.2559   2.2784
     2.2860   2.3046   2.7304   2.7465   2.7604   2.7620   2.7770   2.7803
     2.8420   2.8448   3.0089   3.1272   3.1302   3.3129   3.3195   3.4146
     3.4868   3.4876   3.7912   3.7921   3.8326   3.8494   3.8542   3.9867
     3.9988   4.0175   4.0441   4.2884   4.2907   4.3253   4.3370   4.4376
     4.4472   4.4947   4.5175   4.8071   5.3933   5.3963   5.4708   5.5030
     5.5965   5.6023   5.6613   5.6781   5.6881   5.6901   5.8008   5.8092
     5.8410   6.0097   6.0723   6.0898   6.0950   6.1035   6.1065   6.1090
     6.2080   6.2342   6.2811   6.3225   6.4335   6.4430   6.4468   6.4584

          k =-0.2500 0.2500 0.2500 (167588 PWs)   bands (ev):

   -19.0847  -6.9760  -6.9389  -6.4126  -6.4102  -5.9725  -5.5740  -5.4714
    -5.4698  -5.2491  -5.2486  -5.1604  -5.1512  -5.0199  -5.0105  -4.9009
    -4.8137  -4.8083  -4.7886  -4.7874  -4.6106  -4.6054  -4.6045  -4.5792
    -4.5750  -4.5738  -4.5693  -4.5217  -4.5162  -4.5141  -4.5134  -4.4499
    -4.4220  -4.4218  -4.3763  -4.3617  -4.3603  -4.3286  -4.3235  -4.3104
    -4.3055  -4.2870  -4.2869  -4.2573  -4.2184  -4.2176  -4.2165  -4.2113
    -4.2112  -4.1834  -4.1553  -4.1542  -4.1227  -4.1205  -4.1181  -4.1173
    -4.1157  -4.1090  -4.0886  -4.0760  -4.0177  -4.0163  -3.9871  -3.9613
    -3.9559  -3.9485  -3.9472  -3.9252  -3.9244  -3.9141  -3.8637  -3.8626
    -3.8616  -3.8565  -3.7863  -3.7710  -3.7547  -3.7488  -3.7266  -3.7144
    -3.6970  -3.6746  -3.6738  -3.6316  -3.6290  -3.6281  -3.6264  -3.6133
    -3.6012  -3.5469  -3.5211  -3.5203  -3.5037  -3.4984  -3.4882  -3.4749
    -3.4739  -3.4692  -3.4685  -3.4510  -3.4243  -3.4204  -3.4014  -3.3838
    -3.3637  -3.3412  -3.3350  -3.3175  -3.2906  -3.2709  -3.2674  -3.2352
    -3.2103  -3.2099  -3.2087  -3.2059  -3.2046  -3.1968  -3.1672  -3.1630
    -3.1311  -3.1308  -3.1097  -3.0854  -3.0835  -3.0818  -3.0769  -3.0746
    -3.0720  -3.0713  -3.0378  -3.0361  -3.0344  -3.0291  -3.0247  -3.0194
    -2.9660  -2.9658  -2.9616  -2.9586  -2.9370  -2.9357  -2.9327  -2.8419
    -2.8350  -2.8318  -2.8267  -2.8225  -2.8171  -2.8159  -2.8148  -2.8073
    -2.8057  -2.7973  -2.7887  -2.7846  -2.7807  -2.7784  -2.7712  -2.7637
    -2.7619  -2.7429  -2.7305  -2.7300  -2.7159  -2.7150  -2.6984  -2.6938
    -2.6891  -2.6886  -2.6681  -2.6562  -2.6556  -2.6503  -2.6417  -2.6163
    -2.6140  -2.6092  -2.5567  -2.5514  -2.5416  -2.5376  -2.5249  -2.5245
    -2.5019  -2.4980  -2.4954  -2.4837  -2.4829  -2.4732  -2.4711  -2.4586
    -2.4539  -2.4287  -2.4280  -2.4192  -2.4176  -2.4088  -2.4072  -2.3872
    -2.3750  -2.3517  -2.2917  -2.2868  -2.2669  -2.2656  -2.2555  -2.2493
    -2.2035  -2.2033  -2.1865  -2.1704  -2.1608  -2.1558  -2.1392  -2.1217
    -2.1180  -2.1083  -2.1006  -2.0813  -2.0729  -2.0644  -2.0570  -2.0556
    -2.0517  -2.0493  -2.0402  -2.0209  -2.0184  -2.0160  -2.0151  -2.0139
    -2.0108  -2.0102  -1.9991  -1.9810  -1.9762  -1.9758  -1.9677  -1.9587
    -1.9551  -1.9548  -1.9514  -1.9481  -1.9454  -1.9099  -1.9073  -1.8657
    -1.8480  -1.8475  -1.8015  -1.8010  -1.8007  -1.7892  -1.7882  -1.7748
    -1.7744  -1.7687  -1.7654  -1.7569  -1.7522  -1.7384  -1.7373  -1.7022
    -1.6984  -1.6819  -1.6702  -1.6611  -1.6238  -1.6181  -1.5736  -1.5689
    -1.5582  -1.5483  -1.5292  -1.5228  -1.5220  -1.5157  -1.5063  -1.4989
    -1.4978  -1.4965  -1.4932  -1.4926  -1.4918  -1.4899  -1.4857  -1.4646
    -1.4608  -1.4336  -1.4327  -1.4307  -1.4167  -1.4077  -1.4052  -1.4024
    -1.3980  -1.3838  -1.3614  -1.3569  -1.3400  -1.3340  -1.3307  -1.3178
    -1.3073  -1.3020  -1.2936  -1.2733  -1.2711  -1.2645  -1.2531  -1.2250
    -1.2193  -1.2183  -1.2167  -1.2142  -1.1929  -1.1881  -1.1844  -1.1734
    -1.1672  -1.1659  -1.1551  -1.1546  -1.1528  -1.1480  -1.1443  -1.1321
    -1.1277  -1.1241  -1.1207  -1.1161  -1.1114  -1.1005  -1.0875  -1.0553
    -1.0549  -1.0529  -1.0516  -1.0453  -1.0352  -1.0177  -1.0075  -0.9978
    -0.9854  -0.9807  -0.9779  -0.9759  -0.9704  -0.9605  -0.9301  -0.9259
    -0.9149  -0.9129  -0.9113  -0.8945  -0.8929  -0.8774  -0.8557  -0.8459
    -0.8309  -0.8269  -0.7908  -0.7901  -0.7871  -0.7848  -0.7829  -0.7801
    -0.7787  -0.7781  -0.7728  -0.7719  -0.7398  -0.7394  -0.7351  -0.7344
    -0.7335  -0.7258  -0.7210  -0.7103  -0.6932  -0.4385  -0.4218  -0.3744
    -0.3668  -0.3483  -0.2878  -0.1374  -0.1363  -0.1011   0.1776   0.1835
     0.5197   0.5247   0.5616   0.5643   0.6124   0.6154   0.7748   0.7841
     0.8994   0.9033   1.0233   1.5117   1.5458   1.5596   1.5940   1.5942
     1.7326   1.7456   1.7881   1.7896   1.9673   1.9706   2.2559   2.2784
     2.2860   2.3046   2.7304   2.7465   2.7604   2.7620   2.7770   2.7803
     2.8420   2.8448   3.0089   3.1272   3.1302   3.3129   3.3195   3.4146
     3.4868   3.4876   3.7912   3.7921   3.8326   3.8494   3.8542   3.9867
     3.9988   4.0175   4.0441   4.2884   4.2907   4.3253   4.3370   4.4376
     4.4472   4.4947   4.5175   4.8071   5.3933   5.3963   5.4709   5.5031
     5.5965   5.6023   5.6612   5.6781   5.6881   5.6901   5.7867   5.8010
     5.8096   6.0693   6.0895   6.0950   6.1027   6.1053   6.1088   6.1666
     6.1867   6.1897   6.2782   6.3226   6.4147   6.4324   6.4440   6.4884

     the Fermi energy is     0.8467 ev

!    total energy              =   -7379.98183881 Ry
     Harris-Foulkes estimate   =   -7379.98183882 Ry
     estimated scf accuracy    <          7.0E-09 Ry

     The total energy is the sum of the following terms:

     one-electron contribution =  -48870.00566816 Ry
     hartree contribution      =   24981.49560977 Ry
     xc contribution           =   -3556.28240742 Ry
     ewald contribution        =   20064.80932873 Ry
     smearing contrib. (-TS)   =       0.00129827 Ry

     convergence has been achieved in  28 iterations

     Writing output data file 6947312.save

     init_run     :    149.92s CPU    157.14s WALL (       1 calls)
     electrons    :   8681.04s CPU   9071.69s WALL (       1 calls)

     Called by init_run:
     wfcinit      :    124.92s CPU    131.65s WALL (       1 calls)
     potinit      :      4.21s CPU      4.32s WALL (       1 calls)

     Called by electrons:
     c_bands      :   7220.38s CPU   7537.95s WALL (      29 calls)
     sum_band     :   1095.02s CPU   1161.76s WALL (      29 calls)
     v_of_rho     :     16.59s CPU     18.00s WALL (      29 calls)
     newd         :    352.80s CPU    357.10s WALL (      29 calls)
     mix_rho      :      3.42s CPU      3.78s WALL (      29 calls)

     Called by c_bands:
     init_us_2    :      9.42s CPU      9.74s WALL (     354 calls)
     cegterg      :   6977.24s CPU   7292.45s WALL (     174 calls)

     Called by *egterg:
     h_psi        :   2747.65s CPU   3032.20s WALL (     852 calls)
     s_psi        :    361.61s CPU    363.38s WALL (     852 calls)
     g_psi        :      4.65s CPU      4.63s WALL (     672 calls)
     cdiaghg      :   1497.00s CPU   1501.65s WALL (     840 calls)

     Called by h_psi:
     add_vuspsi   :    362.39s CPU    364.04s WALL (     852 calls)

     General routines
     calbec       :    969.42s CPU    972.57s WALL (    1026 calls)
     fft          :    165.98s CPU    168.75s WALL (     464 calls)
     ffts         :      2.04s CPU      2.27s WALL (      58 calls)
     fftw         :   1949.64s CPU   2266.44s WALL (  464272 calls)
     interpolate  :      4.40s CPU      5.00s WALL (      58 calls)
     davcio       :      0.02s CPU      0.11s WALL (       6 calls)

     Parallel routines
     fft_scatter  :   1559.80s CPU   1801.32s WALL (  464794 calls)

     PWSCF        :     2h27m CPU        2h34m WALL


   This run was terminated on:  20:32:30   7Aug2015            

=------------------------------------------------------------------------------=
   JOB DONE.
=------------------------------------------------------------------------------=
