
     Program PWSCF v.5.1.2 starts on 10Aug2015 at 13:37: 0 

     This program is part of the open-source Quantum ESPRESSO suite
     for quantum simulation of materials; please cite
         "P. Giannozzi et al., J. Phys.:Condens. Matter 21 395502 (2009);
          URL http://www.quantum-espresso.org", 
     in publications or presentations arising from this work. More details at
     http://www.quantum-espresso.org/quote

     Parallel version (MPI), running on    32 processors
     R & G space division:  proc/nbgrp/npool/nimage =      32
     Reading input from top.O1.Au5859.d.2.5.phi.0.psi.0.in
Warning: card &IONS ignored
Warning: card / ignored
Warning: card &CELL ignored
Warning: card / ignored

     Current dimensions of program PWSCF are:
     Max number of different atomic species (ntypx) = 10
     Max number of k-points (npk) =  40000
     Max angular momentum in pseudopotentials (lmaxx) =  3

     Subspace diagonalization in iterative solution of the eigenvalue problem:
     a serial algorithm will be used


     Parallelization info
     --------------------
     sticks:   dense  smooth     PW     G-vecs:    dense   smooth      PW
     Min         578     289     74               118518    41891    5486
     Max         579     290     75               118533    41932    5497
     Sum       18505    9265   2385              3792731  1341081  175711


     Title: 
     top.O1.Au5859.d.2.5.phi.0.psi.0                                            


     bravais-lattice index     =            8
     lattice parameter (alat)  =      24.1233  a.u.
     unit-cell volume          =   28076.2361 (a.u.)^3
     number of atoms/cell      =           75
     number of atomic types    =            3
     number of electrons       =       800.00
     number of Kohn-Sham states=          480
     kinetic-energy cutoff     =      50.0000  Ry
     charge density cutoff     =     400.0000  Ry
     convergence threshold     =      1.0E-08
     mixing beta               =       0.7000
     number of iterations used =            8  plain     mixing
     Exchange-correlation      =  SLA  PW   PBE  PBE ( 1  4  3  4 0 0)

     celldm(1)=  24.123277  celldm(2)=   1.000000  celldm(3)=   2.000000
     celldm(4)=   0.000000  celldm(5)=   0.000000  celldm(6)=   0.000000

     crystal axes: (cart. coord. in units of alat)
               a(1) = (   1.000000   0.000000   0.000000 )  
               a(2) = (   0.000000   1.000000   0.000000 )  
               a(3) = (   0.000000   0.000000   2.000000 )  

     reciprocal axes: (cart. coord. in units 2 pi/alat)
               b(1) = (  1.000000  0.000000  0.000000 )  
               b(2) = (  0.000000  1.000000  0.000000 )  
               b(3) = (  0.000000  0.000000  0.500000 )  


     PseudoPot. # 1 for Au read from file:
     /home/scc/andrejb/qe/pseudo/Au.pbe-nd-van.UPF
     MD5 check sum: 458681b50f36d87ef23c61b04bba420a
     Pseudo is Ultrasoft + core correction, Zval = 11.0
     Generated by new atomic code, or converted to UPF format
     Using radial grid of  985 points,  3 beta functions with: 
                l(1) =   1
                l(2) =   2
                l(3) =   2
     Q(r) pseudized with  8 coefficients,  rinner =    1.100   1.100   1.100
                                                       1.100   1.100

     PseudoPot. # 2 for H  read from file:
     /home/scc/andrejb/qe/pseudo/H.pbe-van_ak.UPF
     MD5 check sum: 403db7282739603aa925980fa9b8608d
     Pseudo is Ultrasoft, Zval =  1.0
     Generated by new atomic code, or converted to UPF format
     Using radial grid of  615 points,  1 beta functions with: 
                l(1) =   0
     Q(r) pseudized with  8 coefficients,  rinner =    0.800

     PseudoPot. # 3 for O  read from file:
     /home/scc/andrejb/qe/pseudo/O.pbe-van_ak.UPF
     MD5 check sum: 4b8c549914a63cae506c6ff22b5af4fe
     Pseudo is Ultrasoft, Zval =  6.0
     Generated by new atomic code, or converted to UPF format
     Using radial grid of  737 points,  4 beta functions with: 
                l(1) =   0
                l(2) =   0
                l(3) =   1
                l(4) =   1
     Q(r) pseudized with  8 coefficients,  rinner =    0.800   0.800   0.800


     atomic species   valence    mass     pseudopotential
        Au            11.00   196.96657     Au( 1.00)
        H              1.00     1.01000     H ( 1.00)
        O              6.00    16.00000     O ( 1.00)

     No symmetry found



   Cartesian axes

     site n.     atom                  positions (alat units)
         1           O   tau(   1) = (   0.1666051   0.1666105   0.6951546  )
         2           H   tau(   2) = (   0.1195275   0.1274390   0.7406485  )
         3           H   tau(   3) = (   0.2122554   0.2046122   0.7430122  )
         4           Au  tau(   4) = (   0.0000000   0.0000000   0.0000000  )
         5           Au  tau(   5) = (   0.3332217   0.0000000   0.0000000  )
         6           Au  tau(   6) = (   0.6664434   0.0000000   0.0000000  )
         7           Au  tau(   7) = (   0.1666109   0.1666109   0.0000000  )
         8           Au  tau(   8) = (   0.4998326   0.1666109   0.0000000  )
         9           Au  tau(   9) = (   0.8330542   0.1666109   0.0000000  )
        10           Au  tau(  10) = (   0.0000000   0.3332217   0.0000000  )
        11           Au  tau(  11) = (   0.3332217   0.3332217   0.0000000  )
        12           Au  tau(  12) = (   0.6664434   0.3332217   0.0000000  )
        13           Au  tau(  13) = (   0.1666109   0.4998326   0.0000000  )
        14           Au  tau(  14) = (   0.4998326   0.4998326   0.0000000  )
        15           Au  tau(  15) = (   0.8330542   0.4998326   0.0000000  )
        16           Au  tau(  16) = (   0.0000000   0.6664434   0.0000000  )
        17           Au  tau(  17) = (   0.3332217   0.6664434   0.0000000  )
        18           Au  tau(  18) = (   0.6664434   0.6664434   0.0000000  )
        19           Au  tau(  19) = (   0.1666109   0.8330542   0.0000000  )
        20           Au  tau(  20) = (   0.4998326   0.8330542   0.0000000  )
        21           Au  tau(  21) = (   0.8330542   0.8330542   0.0000000  )
        22           Au  tau(  22) = (   0.1666109   0.0000000   0.1666109  )
        23           Au  tau(  23) = (   0.4998326   0.0000000   0.1666109  )
        24           Au  tau(  24) = (   0.8330542   0.0000000   0.1666109  )
        25           Au  tau(  25) = (   0.0000000   0.1666109   0.1666109  )
        26           Au  tau(  26) = (   0.3332217   0.1666109   0.1666109  )
        27           Au  tau(  27) = (   0.6664434   0.1666109   0.1666109  )
        28           Au  tau(  28) = (   0.1666109   0.3332217   0.1666109  )
        29           Au  tau(  29) = (   0.4998326   0.3332217   0.1666109  )
        30           Au  tau(  30) = (   0.8330542   0.3332217   0.1666109  )
        31           Au  tau(  31) = (   0.0000000   0.4998326   0.1666109  )
        32           Au  tau(  32) = (   0.3332217   0.4998326   0.1666109  )
        33           Au  tau(  33) = (   0.6664434   0.4998326   0.1666109  )
        34           Au  tau(  34) = (   0.1666109   0.6664434   0.1666109  )
        35           Au  tau(  35) = (   0.4998326   0.6664434   0.1666109  )
        36           Au  tau(  36) = (   0.8330542   0.6664434   0.1666109  )
        37           Au  tau(  37) = (   0.0000000   0.8330542   0.1666109  )
        38           Au  tau(  38) = (   0.3332217   0.8330542   0.1666109  )
        39           Au  tau(  39) = (   0.6664434   0.8330542   0.1666109  )
        40           Au  tau(  40) = (  -0.0000182  -0.0000182   0.3335478  )
        41           Au  tau(  41) = (   0.3332215  -0.0000181   0.3335473  )
        42           Au  tau(  42) = (   0.6664447  -0.0000183   0.3335481  )
        43           Au  tau(  43) = (  -0.0000181   0.3332215   0.3335473  )
        44           Au  tau(  44) = (   0.3332215   0.3332215   0.3335468  )
        45           Au  tau(  45) = (   0.6664445   0.3332215   0.3335477  )
        46           Au  tau(  46) = (  -0.0000183   0.6664447   0.3335481  )
        47           Au  tau(  47) = (   0.3332215   0.6664445   0.3335477  )
        48           Au  tau(  48) = (   0.6664446   0.6664446   0.3335486  )
        49           Au  tau(  49) = (   0.1666097   0.1666097   0.3335483  )
        50           Au  tau(  50) = (   0.4998320   0.1666098   0.3335477  )
        51           Au  tau(  51) = (   0.8330732   0.1666096   0.3335480  )
        52           Au  tau(  52) = (   0.1666098   0.4998320   0.3335477  )
        53           Au  tau(  53) = (   0.4998322   0.4998322   0.3335470  )
        54           Au  tau(  54) = (   0.8330731   0.4998322   0.3335474  )
        55           Au  tau(  55) = (   0.1666096   0.8330732   0.3335480  )
        56           Au  tau(  56) = (   0.4998322   0.8330731   0.3335474  )
        57           Au  tau(  57) = (   0.8330731   0.8330731   0.3335478  )
        58           Au  tau(  58) = (   0.1666104  -0.0000111   0.4993095  )
        59           Au  tau(  59) = (   0.4998323  -0.0000112   0.4993099  )
        60           Au  tau(  60) = (   0.8330660  -0.0000111   0.4993009  )
        61           Au  tau(  61) = (  -0.0000111   0.1666104   0.4993095  )
        62           Au  tau(  62) = (   0.3332213   0.1666106   0.4993185  )
        63           Au  tau(  63) = (   0.6664437   0.1666106   0.4993187  )
        64           Au  tau(  64) = (   0.1666106   0.3332213   0.4993185  )
        65           Au  tau(  65) = (   0.4998324   0.3332216   0.4993185  )
        66           Au  tau(  66) = (   0.8330658   0.3332215   0.4993102  )
        67           Au  tau(  67) = (  -0.0000112   0.4998323   0.4993099  )
        68           Au  tau(  68) = (   0.3332216   0.4998324   0.4993185  )
        69           Au  tau(  69) = (   0.6664437   0.4998325   0.4993187  )
        70           Au  tau(  70) = (   0.1666106   0.6664437   0.4993187  )
        71           Au  tau(  71) = (   0.4998325   0.6664437   0.4993187  )
        72           Au  tau(  72) = (   0.8330658   0.6664438   0.4993102  )
        73           Au  tau(  73) = (  -0.0000111   0.8330660   0.4993009  )
        74           Au  tau(  74) = (   0.3332215   0.8330658   0.4993102  )
        75           Au  tau(  75) = (   0.6664438   0.8330658   0.4993102  )

     number of k points=     6  Marzari-Vanderbilt smearing, width (Ry)=  0.0200
                       cart. coord. in units 2pi/alat
        k(    1) = (   0.2500000   0.2500000   0.0833333), wk =   0.3333333
        k(    2) = (   0.2500000   0.2500000  -0.2500000), wk =   0.3333333
        k(    3) = (  -0.2500000  -0.2500000   0.0833333), wk =   0.3333333
        k(    4) = (  -0.2500000   0.2500000  -0.0833333), wk =   0.3333333
        k(    5) = (   0.2500000  -0.2500000  -0.0833333), wk =   0.3333333
        k(    6) = (  -0.2500000   0.2500000   0.2500000), wk =   0.3333333

     Dense  grid:  3792731 G-vectors     FFT dimensions: ( 160, 160, 320)

     Smooth grid:  1341081 G-vectors     FFT dimensions: ( 120, 120, 225)

     Largest allocated arrays     est. size (Mb)     dimensions
        Kohn-Sham Wavefunctions        38.58 Mb     (    5267,  480)
        NL pseudopotentials            76.03 Mb     (    5267,  946)
        Each V/rho on FFT grid          3.91 Mb     (  256000)
        Each G-vector array             0.90 Mb     (  118520)
        G-vector shells                 0.08 Mb     (   10286)
     Largest temporary arrays     est. size (Mb)     dimensions
        Auxiliary wavefunctions       154.31 Mb     (    5267, 1920)
        Each subspace H/S matrix       56.25 Mb     (    1920, 1920)
        Each <psi_i|beta_j> matrix      6.93 Mb     (     946,  480)
        Arrays for rho mixing          31.25 Mb     (  256000,    8)

     Initial potential from superposition of free atoms
     Check: negative starting charge=   -1.945126

     starting charge  799.16392, renormalised to  800.00000

     negative rho (up, down):  1.947E+00 0.000E+00
     Starting wfc are  654 randomized atomic wfcs

     total cpu time spent up to now is      119.6 secs

     Self-consistent Calculation

     iteration #  1     ecut=    50.00 Ry     beta=0.70
     Davidson diagonalization with overlap
     ethr =  1.00E-02,  avg # of iterations =  3.0

     Threshold (ethr) on eigenvalues was too large:
     Diagonalizing with lowered threshold

     Davidson diagonalization with overlap
     ethr =  5.01E-04,  avg # of iterations =  2.0

     negative rho (up, down):  1.932E+00 0.000E+00

     total cpu time spent up to now is      544.1 secs

     total energy              =   -7377.39091683 Ry
     Harris-Foulkes estimate   =   -7380.96204530 Ry
     estimated scf accuracy    <       4.53322264 Ry

     iteration #  2     ecut=    50.00 Ry     beta=0.70
     Davidson diagonalization with overlap
     ethr =  5.67E-04,  avg # of iterations = 11.3

     negative rho (up, down):  1.929E+00 0.000E+00

     total cpu time spent up to now is     1151.4 secs

     total energy              =   -7368.43941290 Ry
     Harris-Foulkes estimate   =   -7388.08239613 Ry
     estimated scf accuracy    <     102.21588904 Ry

     iteration #  3     ecut=    50.00 Ry     beta=0.70
     Davidson diagonalization with overlap
     ethr =  5.67E-04,  avg # of iterations =  6.0

     negative rho (up, down):  1.947E+00 0.000E+00

     total cpu time spent up to now is     1563.5 secs

     total energy              =   -7379.12979890 Ry
     Harris-Foulkes estimate   =   -7380.65709343 Ry
     estimated scf accuracy    <       5.53133733 Ry

     iteration #  4     ecut=    50.00 Ry     beta=0.70
     Davidson diagonalization with overlap
     ethr =  5.67E-04,  avg # of iterations =  5.7

     negative rho (up, down):  1.951E+00 0.000E+00

     total cpu time spent up to now is     1873.5 secs

     total energy              =   -7379.42979683 Ry
     Harris-Foulkes estimate   =   -7380.39673510 Ry
     estimated scf accuracy    <       6.83586369 Ry

     iteration #  5     ecut=    50.00 Ry     beta=0.70
     Davidson diagonalization with overlap
     ethr =  5.67E-04,  avg # of iterations =  4.7

     negative rho (up, down):  1.961E+00 0.000E+00

     total cpu time spent up to now is     2122.5 secs

     total energy              =   -7379.88486731 Ry
     Harris-Foulkes estimate   =   -7380.11134046 Ry
     estimated scf accuracy    <       1.42049444 Ry

     iteration #  6     ecut=    50.00 Ry     beta=0.70
     Davidson diagonalization with overlap
     ethr =  1.78E-04,  avg # of iterations =  4.3

     negative rho (up, down):  1.964E+00 0.000E+00

     total cpu time spent up to now is     2355.5 secs

     total energy              =   -7379.96014557 Ry
     Harris-Foulkes estimate   =   -7379.99711918 Ry
     estimated scf accuracy    <       0.11918070 Ry

     iteration #  7     ecut=    50.00 Ry     beta=0.70
     Davidson diagonalization with overlap
     ethr =  1.49E-05,  avg # of iterations = 13.0

     negative rho (up, down):  1.967E+00 0.000E+00

     total cpu time spent up to now is     2709.8 secs

     total energy              =   -7379.96482130 Ry
     Harris-Foulkes estimate   =   -7379.99275448 Ry
     estimated scf accuracy    <       0.11910543 Ry

     iteration #  8     ecut=    50.00 Ry     beta=0.70
     Davidson diagonalization with overlap
     ethr =  1.49E-05,  avg # of iterations =  3.0

     negative rho (up, down):  1.968E+00 0.000E+00

     total cpu time spent up to now is     2937.0 secs

     total energy              =   -7379.96709138 Ry
     Harris-Foulkes estimate   =   -7379.98891695 Ry
     estimated scf accuracy    <       0.09821324 Ry

     iteration #  9     ecut=    50.00 Ry     beta=0.70
     Davidson diagonalization with overlap
     ethr =  1.23E-05,  avg # of iterations =  4.3

     negative rho (up, down):  1.969E+00 0.000E+00

     total cpu time spent up to now is     3163.1 secs

     total energy              =   -7379.97523936 Ry
     Harris-Foulkes estimate   =   -7379.98141361 Ry
     estimated scf accuracy    <       0.02120829 Ry

     iteration # 10     ecut=    50.00 Ry     beta=0.70
     Davidson diagonalization with overlap
     ethr =  2.65E-06,  avg # of iterations = 12.3

     negative rho (up, down):  1.970E+00 0.000E+00

     total cpu time spent up to now is     3479.1 secs

     total energy              =   -7379.97812485 Ry
     Harris-Foulkes estimate   =   -7379.97979671 Ry
     estimated scf accuracy    <       0.00501625 Ry

     iteration # 11     ecut=    50.00 Ry     beta=0.70
     Davidson diagonalization with overlap
     ethr =  6.27E-07,  avg # of iterations =  2.2

     negative rho (up, down):  1.970E+00 0.000E+00

     total cpu time spent up to now is     3685.7 secs

     total energy              =   -7379.97879867 Ry
     Harris-Foulkes estimate   =   -7379.97925352 Ry
     estimated scf accuracy    <       0.00116494 Ry

     iteration # 12     ecut=    50.00 Ry     beta=0.70
     Davidson diagonalization with overlap
     ethr =  1.46E-07,  avg # of iterations =  2.0

     negative rho (up, down):  1.970E+00 0.000E+00

     total cpu time spent up to now is     3898.8 secs

     total energy              =   -7379.97895311 Ry
     Harris-Foulkes estimate   =   -7379.97910992 Ry
     estimated scf accuracy    <       0.00057031 Ry

     iteration # 13     ecut=    50.00 Ry     beta=0.70
     Davidson diagonalization with overlap
     ethr =  7.13E-08,  avg # of iterations =  2.0

     negative rho (up, down):  1.970E+00 0.000E+00

     total cpu time spent up to now is     4098.4 secs

     total energy              =   -7379.97900542 Ry
     Harris-Foulkes estimate   =   -7379.97908456 Ry
     estimated scf accuracy    <       0.00038258 Ry

     iteration # 14     ecut=    50.00 Ry     beta=0.70
     Davidson diagonalization with overlap
     ethr =  4.78E-08,  avg # of iterations =  2.0

     negative rho (up, down):  1.970E+00 0.000E+00

     total cpu time spent up to now is     4301.5 secs

     total energy              =   -7379.97904155 Ry
     Harris-Foulkes estimate   =   -7379.97905826 Ry
     estimated scf accuracy    <       0.00005507 Ry

     iteration # 15     ecut=    50.00 Ry     beta=0.70
     Davidson diagonalization with overlap
     ethr =  6.88E-09,  avg # of iterations =  2.0

     negative rho (up, down):  1.970E+00 0.000E+00

     total cpu time spent up to now is     4507.4 secs

     total energy              =   -7379.97904385 Ry
     Harris-Foulkes estimate   =   -7379.97905698 Ry
     estimated scf accuracy    <       0.00005329 Ry

     iteration # 16     ecut=    50.00 Ry     beta=0.70
     Davidson diagonalization with overlap
     ethr =  6.66E-09,  avg # of iterations =  2.0

     negative rho (up, down):  1.970E+00 0.000E+00

     total cpu time spent up to now is     4713.6 secs

     total energy              =   -7379.97904237 Ry
     Harris-Foulkes estimate   =   -7379.97906158 Ry
     estimated scf accuracy    <       0.00015285 Ry

     iteration # 17     ecut=    50.00 Ry     beta=0.70
     Davidson diagonalization with overlap
     ethr =  6.66E-09,  avg # of iterations =  1.0

     negative rho (up, down):  1.970E+00 0.000E+00

     total cpu time spent up to now is     4905.3 secs

     total energy              =   -7379.97905081 Ry
     Harris-Foulkes estimate   =   -7379.97905266 Ry
     estimated scf accuracy    <       0.00000630 Ry

     iteration # 18     ecut=    50.00 Ry     beta=0.70
     Davidson diagonalization with overlap
     ethr =  7.88E-10,  avg # of iterations =  2.0

     negative rho (up, down):  1.970E+00 0.000E+00

     total cpu time spent up to now is     5114.9 secs

     total energy              =   -7379.97905146 Ry
     Harris-Foulkes estimate   =   -7379.97905235 Ry
     estimated scf accuracy    <       0.00000378 Ry

     iteration # 19     ecut=    50.00 Ry     beta=0.70
     Davidson diagonalization with overlap
     ethr =  4.73E-10,  avg # of iterations =  2.0

     negative rho (up, down):  1.970E+00 0.000E+00

     total cpu time spent up to now is     5323.0 secs

     total energy              =   -7379.97905161 Ry
     Harris-Foulkes estimate   =   -7379.97905236 Ry
     estimated scf accuracy    <       0.00000319 Ry

     iteration # 20     ecut=    50.00 Ry     beta=0.70
     Davidson diagonalization with overlap
     ethr =  3.99E-10,  avg # of iterations =  2.0

     negative rho (up, down):  1.970E+00 0.000E+00

     total cpu time spent up to now is     5528.1 secs

     total energy              =   -7379.97905194 Ry
     Harris-Foulkes estimate   =   -7379.97905207 Ry
     estimated scf accuracy    <       0.00000035 Ry

     iteration # 21     ecut=    50.00 Ry     beta=0.70
     Davidson diagonalization with overlap
     ethr =  4.43E-11,  avg # of iterations =  2.0

     negative rho (up, down):  1.970E+00 0.000E+00

     total cpu time spent up to now is     5744.2 secs

     total energy              =   -7379.97905199 Ry
     Harris-Foulkes estimate   =   -7379.97905203 Ry
     estimated scf accuracy    <       0.00000010 Ry

     iteration # 22     ecut=    50.00 Ry     beta=0.70
     Davidson diagonalization with overlap
     ethr =  1.31E-11,  avg # of iterations =  3.0

     negative rho (up, down):  1.970E+00 0.000E+00

     total cpu time spent up to now is     5965.6 secs

     total energy              =   -7379.97905200 Ry
     Harris-Foulkes estimate   =   -7379.97905202 Ry
     estimated scf accuracy    <       0.00000004 Ry

     iteration # 23     ecut=    50.00 Ry     beta=0.70
     Davidson diagonalization with overlap
     ethr =  4.93E-12,  avg # of iterations =  3.0

     negative rho (up, down):  1.970E+00 0.000E+00

     total cpu time spent up to now is     6199.3 secs

     total energy              =   -7379.97905199 Ry
     Harris-Foulkes estimate   =   -7379.97905202 Ry
     estimated scf accuracy    <       0.00000010 Ry

     iteration # 24     ecut=    50.00 Ry     beta=0.70
     Davidson diagonalization with overlap
     ethr =  4.93E-12,  avg # of iterations =  3.0

     negative rho (up, down):  1.970E+00 0.000E+00

     total cpu time spent up to now is     6418.2 secs

     total energy              =   -7379.97905200 Ry
     Harris-Foulkes estimate   =   -7379.97905201 Ry
     estimated scf accuracy    <       0.00000003 Ry

     iteration # 25     ecut=    50.00 Ry     beta=0.70
     Davidson diagonalization with overlap
     ethr =  3.52E-12,  avg # of iterations =  2.0

     negative rho (up, down):  1.970E+00 0.000E+00

     total cpu time spent up to now is     6627.0 secs

     End of self-consistent calculation

          k = 0.2500 0.2500 0.0833 (167653 PWs)   bands (ev):

   -19.8503  -7.6500  -6.7248  -6.1946  -6.1944  -5.7560  -5.3572  -5.2541
    -5.2539  -5.0320  -5.0316  -4.9445  -4.9361  -4.8043  -4.7937  -4.6841
    -4.5964  -4.5916  -4.5723  -4.5708  -4.4010  -4.3883  -4.3877  -4.3614
    -4.3604  -4.3567  -4.3540  -4.3175  -4.3004  -4.2970  -4.2964  -4.2347
    -4.2241  -4.2045  -4.1986  -4.1446  -4.1435  -4.1252  -4.1078  -4.0931
    -4.0889  -4.0784  -4.0700  -4.0684  -4.0209  -4.0004  -4.0001  -3.9961
    -3.9941  -3.9837  -3.9639  -3.9355  -3.9233  -3.9044  -3.9031  -3.9005
    -3.8989  -3.8982  -3.8920  -3.8611  -3.8317  -3.8001  -3.7991  -3.7649
    -3.7429  -3.7335  -3.7310  -3.7234  -3.7081  -3.7075  -3.6962  -3.6458
    -3.6457  -3.6401  -3.6370  -3.5552  -3.5497  -3.5330  -3.5287  -3.4974
    -3.4883  -3.4821  -3.4568  -3.4567  -3.4121  -3.4111  -3.4099  -3.4099
    -3.3852  -3.3825  -3.3040  -3.3035  -3.3004  -3.2885  -3.2728  -3.2710
    -3.2572  -3.2569  -3.2510  -3.2503  -3.2075  -3.2066  -3.1852  -3.1807
    -3.1485  -3.1426  -3.1218  -3.1003  -3.0985  -3.0542  -3.0538  -3.0207
    -2.9940  -2.9929  -2.9926  -2.9896  -2.9882  -2.9869  -2.9586  -2.9517
    -2.9135  -2.9132  -2.8922  -2.8678  -2.8654  -2.8653  -2.8594  -2.8583
    -2.8543  -2.8543  -2.8192  -2.8189  -2.8181  -2.8128  -2.8096  -2.8075
    -2.7516  -2.7473  -2.7429  -2.7422  -2.7205  -2.7188  -2.7150  -2.6255
    -2.6159  -2.6156  -2.6067  -2.6056  -2.6001  -2.5995  -2.5978  -2.5898
    -2.5897  -2.5796  -2.5716  -2.5699  -2.5660  -2.5637  -2.5550  -2.5480
    -2.5466  -2.5249  -2.5151  -2.5127  -2.4981  -2.4980  -2.4812  -2.4787
    -2.4722  -2.4715  -2.4511  -2.4397  -2.4381  -2.4348  -2.4301  -2.3997
    -2.3973  -2.3940  -2.3391  -2.3350  -2.3233  -2.3211  -2.3105  -2.3093
    -2.2829  -2.2826  -2.2781  -2.2689  -2.2635  -2.2569  -2.2527  -2.2381
    -2.2372  -2.2137  -2.2101  -2.2006  -2.2003  -2.1916  -2.1901  -2.1722
    -2.1590  -2.1366  -2.0916  -2.0690  -2.0500  -2.0487  -2.0412  -2.0344
    -2.0002  -1.9848  -1.9688  -1.9645  -1.9520  -1.9385  -1.9358  -1.9194
    -1.9021  -1.9000  -1.8891  -1.8842  -1.8536  -1.8488  -1.8475  -1.8411
    -1.8378  -1.8334  -1.8321  -1.8142  -1.8067  -1.7975  -1.7974  -1.7969
    -1.7964  -1.7927  -1.7898  -1.7807  -1.7606  -1.7596  -1.7507  -1.7468
    -1.7394  -1.7383  -1.7353  -1.7335  -1.7278  -1.7215  -1.6907  -1.6879
    -1.6484  -1.6294  -1.6273  -1.5835  -1.5831  -1.5829  -1.5728  -1.5713
    -1.5594  -1.5573  -1.5499  -1.5440  -1.5410  -1.5309  -1.5201  -1.5192
    -1.4826  -1.4825  -1.4647  -1.4440  -1.4400  -1.4039  -1.4019  -1.3533
    -1.3514  -1.3318  -1.3091  -1.3055  -1.3055  -1.2989  -1.2974  -1.2804
    -1.2802  -1.2795  -1.2782  -1.2781  -1.2776  -1.2746  -1.2669  -1.2607
    -1.2461  -1.2439  -1.2130  -1.2123  -1.2112  -1.1904  -1.1898  -1.1858
    -1.1823  -1.1795  -1.1690  -1.1448  -1.1406  -1.1199  -1.1174  -1.1083
    -1.0975  -1.0866  -1.0862  -1.0573  -1.0561  -1.0494  -1.0461  -1.0095
    -1.0079  -0.9998  -0.9993  -0.9982  -0.9955  -0.9720  -0.9719  -0.9578
    -0.9506  -0.9503  -0.9391  -0.9383  -0.9359  -0.9344  -0.9260  -0.9141
    -0.9130  -0.9072  -0.9067  -0.9016  -0.8949  -0.8926  -0.8805  -0.8384
    -0.8366  -0.8360  -0.8340  -0.8308  -0.8300  -0.7986  -0.7975  -0.7878
    -0.7695  -0.7659  -0.7611  -0.7608  -0.7529  -0.7442  -0.7405  -0.7087
    -0.7083  -0.6966  -0.6962  -0.6764  -0.6761  -0.6608  -0.6372  -0.6289
    -0.6114  -0.6111  -0.5734  -0.5728  -0.5701  -0.5695  -0.5673  -0.5625
    -0.5622  -0.5609  -0.5568  -0.5553  -0.5225  -0.5222  -0.5218  -0.5216
    -0.5148  -0.5103  -0.5043  -0.5038  -0.4768  -0.2164  -0.2076  -0.1622
    -0.1551  -0.1307  -0.0689   0.0798   0.0813   0.1147   0.3970   0.3975
     0.7341   0.7403   0.7806   0.7809   0.8291   0.8337   0.9938   0.9946
     1.1178   1.1201   1.2334   1.7279   1.7734   1.7747   1.8118   1.8124
     1.9436   1.9529   2.0054   2.0078   2.1873   2.1881   2.4675   2.4951
     2.5043   2.5232   2.9484   2.9559   2.9788   2.9796   2.9956   2.9980
     3.0615   3.0619   3.1982   3.3349   3.3433   3.5254   3.5377   3.6350
     3.7047   3.7075   4.0059   4.0069   4.0581   4.0661   4.0663   4.1720
     4.2107   4.2178   4.2200   4.5078   4.5089   4.5400   4.5456   4.6593
     4.6638   4.7180   4.7252   4.9394   5.1864   5.6058   5.6124   5.6606
     5.6739   5.8024   5.8126   5.8173   5.8847   5.8902   5.9068   5.9077
     5.9393   6.0173   6.0331   6.1279   6.2773   6.3004   6.3048   6.3167
     6.3171   6.3185   6.3383   6.3602   6.3774   6.4621   6.4922   6.5746

          k = 0.2500 0.2500-0.2500 (167588 PWs)   bands (ev):

   -19.8503  -7.6500  -6.7248  -6.1946  -6.1944  -5.7560  -5.3572  -5.2541
    -5.2539  -5.0320  -5.0316  -4.9445  -4.9361  -4.8043  -4.7937  -4.6841
    -4.5964  -4.5916  -4.5723  -4.5708  -4.4010  -4.3883  -4.3877  -4.3614
    -4.3604  -4.3567  -4.3541  -4.3175  -4.3004  -4.2970  -4.2964  -4.2347
    -4.2240  -4.2045  -4.1986  -4.1446  -4.1435  -4.1252  -4.1078  -4.0931
    -4.0889  -4.0784  -4.0700  -4.0684  -4.0209  -4.0004  -4.0001  -3.9961
    -3.9941  -3.9837  -3.9639  -3.9355  -3.9233  -3.9044  -3.9031  -3.9005
    -3.8989  -3.8982  -3.8920  -3.8611  -3.8316  -3.8001  -3.7991  -3.7649
    -3.7429  -3.7335  -3.7309  -3.7234  -3.7081  -3.7075  -3.6962  -3.6458
    -3.6457  -3.6401  -3.6370  -3.5552  -3.5497  -3.5330  -3.5287  -3.4974
    -3.4883  -3.4821  -3.4568  -3.4567  -3.4121  -3.4111  -3.4099  -3.4099
    -3.3852  -3.3825  -3.3040  -3.3035  -3.3004  -3.2885  -3.2728  -3.2710
    -3.2572  -3.2569  -3.2510  -3.2503  -3.2075  -3.2066  -3.1852  -3.1807
    -3.1485  -3.1426  -3.1218  -3.1003  -3.0984  -3.0542  -3.0538  -3.0207
    -2.9940  -2.9929  -2.9926  -2.9896  -2.9882  -2.9869  -2.9586  -2.9517
    -2.9135  -2.9132  -2.8922  -2.8678  -2.8654  -2.8653  -2.8594  -2.8582
    -2.8543  -2.8543  -2.8192  -2.8189  -2.8181  -2.8128  -2.8096  -2.8075
    -2.7516  -2.7473  -2.7429  -2.7422  -2.7205  -2.7188  -2.7150  -2.6255
    -2.6159  -2.6156  -2.6067  -2.6056  -2.6001  -2.5995  -2.5978  -2.5898
    -2.5897  -2.5796  -2.5716  -2.5699  -2.5660  -2.5637  -2.5550  -2.5479
    -2.5466  -2.5250  -2.5151  -2.5127  -2.4981  -2.4980  -2.4812  -2.4787
    -2.4722  -2.4715  -2.4511  -2.4397  -2.4381  -2.4348  -2.4301  -2.3997
    -2.3973  -2.3940  -2.3391  -2.3350  -2.3233  -2.3211  -2.3105  -2.3093
    -2.2828  -2.2826  -2.2781  -2.2689  -2.2635  -2.2569  -2.2527  -2.2381
    -2.2372  -2.2137  -2.2101  -2.2006  -2.2003  -2.1916  -2.1901  -2.1722
    -2.1590  -2.1366  -2.0916  -2.0690  -2.0500  -2.0487  -2.0412  -2.0344
    -2.0002  -1.9848  -1.9688  -1.9645  -1.9520  -1.9385  -1.9358  -1.9194
    -1.9021  -1.9000  -1.8891  -1.8842  -1.8536  -1.8488  -1.8475  -1.8411
    -1.8378  -1.8334  -1.8321  -1.8142  -1.8067  -1.7975  -1.7974  -1.7969
    -1.7964  -1.7927  -1.7898  -1.7808  -1.7606  -1.7596  -1.7507  -1.7468
    -1.7394  -1.7383  -1.7353  -1.7335  -1.7278  -1.7215  -1.6907  -1.6879
    -1.6484  -1.6294  -1.6273  -1.5835  -1.5831  -1.5829  -1.5728  -1.5713
    -1.5594  -1.5573  -1.5499  -1.5440  -1.5409  -1.5309  -1.5201  -1.5192
    -1.4826  -1.4824  -1.4647  -1.4440  -1.4400  -1.4040  -1.4019  -1.3533
    -1.3514  -1.3318  -1.3091  -1.3055  -1.3055  -1.2989  -1.2974  -1.2804
    -1.2802  -1.2795  -1.2782  -1.2781  -1.2776  -1.2746  -1.2669  -1.2607
    -1.2461  -1.2439  -1.2130  -1.2123  -1.2112  -1.1904  -1.1898  -1.1858
    -1.1823  -1.1795  -1.1690  -1.1448  -1.1406  -1.1199  -1.1174  -1.1083
    -1.0975  -1.0866  -1.0862  -1.0573  -1.0561  -1.0494  -1.0461  -1.0095
    -1.0079  -0.9998  -0.9993  -0.9982  -0.9955  -0.9720  -0.9719  -0.9578
    -0.9506  -0.9503  -0.9391  -0.9383  -0.9359  -0.9344  -0.9260  -0.9141
    -0.9131  -0.9072  -0.9067  -0.9016  -0.8949  -0.8926  -0.8805  -0.8384
    -0.8366  -0.8360  -0.8340  -0.8308  -0.8300  -0.7986  -0.7975  -0.7878
    -0.7695  -0.7659  -0.7611  -0.7608  -0.7529  -0.7442  -0.7405  -0.7087
    -0.7083  -0.6966  -0.6962  -0.6764  -0.6761  -0.6608  -0.6372  -0.6289
    -0.6114  -0.6111  -0.5734  -0.5728  -0.5701  -0.5695  -0.5673  -0.5625
    -0.5622  -0.5609  -0.5568  -0.5553  -0.5225  -0.5222  -0.5218  -0.5216
    -0.5148  -0.5103  -0.5043  -0.5037  -0.4768  -0.2164  -0.2076  -0.1622
    -0.1551  -0.1307  -0.0689   0.0798   0.0813   0.1147   0.3970   0.3975
     0.7340   0.7403   0.7806   0.7809   0.8291   0.8337   0.9939   0.9946
     1.1178   1.1201   1.2334   1.7279   1.7734   1.7747   1.8118   1.8124
     1.9436   1.9529   2.0054   2.0078   2.1873   2.1881   2.4675   2.4951
     2.5043   2.5232   2.9484   2.9559   2.9788   2.9796   2.9956   2.9980
     3.0615   3.0619   3.1983   3.3349   3.3433   3.5254   3.5377   3.6350
     3.7047   3.7075   4.0059   4.0069   4.0581   4.0661   4.0663   4.1721
     4.2107   4.2178   4.2200   4.5078   4.5089   4.5400   4.5456   4.6593
     4.6638   4.7180   4.7252   4.9393   5.1833   5.6057   5.6124   5.6608
     5.6695   5.7793   5.8125   5.8172   5.8847   5.8914   5.9069   5.9077
     5.9813   6.0221   6.0787   6.0888   6.2558   6.3005   6.3048   6.3168
     6.3171   6.3185   6.3335   6.4076   6.4507   6.4654   6.5203   6.5723

          k =-0.2500-0.2500 0.0833 (167653 PWs)   bands (ev):

   -19.8503  -7.6500  -6.7248  -6.1946  -6.1944  -5.7560  -5.3572  -5.2541
    -5.2539  -5.0320  -5.0316  -4.9445  -4.9361  -4.8043  -4.7937  -4.6841
    -4.5964  -4.5916  -4.5723  -4.5708  -4.4010  -4.3883  -4.3877  -4.3614
    -4.3604  -4.3567  -4.3540  -4.3175  -4.3004  -4.2970  -4.2964  -4.2347
    -4.2241  -4.2045  -4.1986  -4.1446  -4.1435  -4.1252  -4.1078  -4.0931
    -4.0889  -4.0784  -4.0700  -4.0684  -4.0209  -4.0004  -4.0001  -3.9961
    -3.9941  -3.9837  -3.9639  -3.9355  -3.9233  -3.9044  -3.9031  -3.9005
    -3.8989  -3.8982  -3.8920  -3.8611  -3.8317  -3.8001  -3.7991  -3.7649
    -3.7429  -3.7335  -3.7310  -3.7234  -3.7081  -3.7075  -3.6962  -3.6458
    -3.6457  -3.6401  -3.6370  -3.5552  -3.5497  -3.5330  -3.5287  -3.4974
    -3.4883  -3.4821  -3.4568  -3.4567  -3.4121  -3.4111  -3.4099  -3.4099
    -3.3852  -3.3825  -3.3040  -3.3035  -3.3004  -3.2885  -3.2728  -3.2710
    -3.2572  -3.2569  -3.2510  -3.2503  -3.2075  -3.2066  -3.1852  -3.1807
    -3.1485  -3.1426  -3.1218  -3.1003  -3.0985  -3.0542  -3.0538  -3.0207
    -2.9940  -2.9929  -2.9926  -2.9896  -2.9882  -2.9869  -2.9586  -2.9517
    -2.9135  -2.9132  -2.8922  -2.8678  -2.8654  -2.8653  -2.8594  -2.8583
    -2.8543  -2.8543  -2.8192  -2.8189  -2.8181  -2.8128  -2.8096  -2.8075
    -2.7516  -2.7473  -2.7429  -2.7422  -2.7205  -2.7188  -2.7150  -2.6255
    -2.6159  -2.6156  -2.6067  -2.6056  -2.6001  -2.5995  -2.5978  -2.5898
    -2.5897  -2.5796  -2.5716  -2.5699  -2.5660  -2.5637  -2.5550  -2.5480
    -2.5466  -2.5249  -2.5151  -2.5127  -2.4981  -2.4980  -2.4812  -2.4787
    -2.4722  -2.4715  -2.4511  -2.4397  -2.4381  -2.4348  -2.4301  -2.3997
    -2.3973  -2.3940  -2.3391  -2.3350  -2.3233  -2.3211  -2.3105  -2.3093
    -2.2829  -2.2826  -2.2781  -2.2689  -2.2635  -2.2569  -2.2527  -2.2381
    -2.2372  -2.2137  -2.2101  -2.2006  -2.2003  -2.1916  -2.1901  -2.1722
    -2.1590  -2.1366  -2.0916  -2.0690  -2.0500  -2.0487  -2.0412  -2.0344
    -2.0002  -1.9848  -1.9688  -1.9645  -1.9520  -1.9385  -1.9358  -1.9194
    -1.9021  -1.9000  -1.8891  -1.8842  -1.8536  -1.8488  -1.8475  -1.8411
    -1.8378  -1.8334  -1.8321  -1.8142  -1.8067  -1.7975  -1.7974  -1.7969
    -1.7964  -1.7927  -1.7898  -1.7807  -1.7606  -1.7596  -1.7507  -1.7468
    -1.7394  -1.7383  -1.7353  -1.7335  -1.7278  -1.7215  -1.6907  -1.6879
    -1.6484  -1.6294  -1.6273  -1.5835  -1.5831  -1.5829  -1.5728  -1.5713
    -1.5594  -1.5573  -1.5499  -1.5440  -1.5410  -1.5309  -1.5201  -1.5192
    -1.4826  -1.4825  -1.4647  -1.4440  -1.4400  -1.4039  -1.4019  -1.3533
    -1.3514  -1.3318  -1.3091  -1.3055  -1.3055  -1.2989  -1.2974  -1.2804
    -1.2802  -1.2795  -1.2782  -1.2781  -1.2776  -1.2746  -1.2669  -1.2607
    -1.2461  -1.2439  -1.2130  -1.2123  -1.2112  -1.1904  -1.1898  -1.1858
    -1.1823  -1.1795  -1.1690  -1.1448  -1.1406  -1.1199  -1.1174  -1.1083
    -1.0975  -1.0866  -1.0862  -1.0573  -1.0561  -1.0494  -1.0461  -1.0095
    -1.0079  -0.9998  -0.9993  -0.9982  -0.9955  -0.9720  -0.9719  -0.9578
    -0.9506  -0.9503  -0.9391  -0.9383  -0.9359  -0.9344  -0.9260  -0.9141
    -0.9130  -0.9072  -0.9067  -0.9016  -0.8949  -0.8926  -0.8805  -0.8384
    -0.8366  -0.8360  -0.8340  -0.8308  -0.8300  -0.7986  -0.7975  -0.7878
    -0.7695  -0.7659  -0.7611  -0.7608  -0.7529  -0.7442  -0.7405  -0.7087
    -0.7083  -0.6966  -0.6962  -0.6764  -0.6761  -0.6608  -0.6372  -0.6289
    -0.6114  -0.6111  -0.5734  -0.5728  -0.5701  -0.5695  -0.5673  -0.5625
    -0.5622  -0.5609  -0.5568  -0.5553  -0.5225  -0.5222  -0.5218  -0.5216
    -0.5148  -0.5103  -0.5043  -0.5038  -0.4768  -0.2164  -0.2076  -0.1622
    -0.1551  -0.1307  -0.0689   0.0798   0.0813   0.1147   0.3970   0.3975
     0.7341   0.7403   0.7806   0.7809   0.8291   0.8337   0.9938   0.9946
     1.1178   1.1201   1.2334   1.7279   1.7734   1.7747   1.8118   1.8124
     1.9436   1.9529   2.0054   2.0078   2.1873   2.1881   2.4675   2.4951
     2.5043   2.5232   2.9484   2.9559   2.9788   2.9796   2.9956   2.9980
     3.0615   3.0619   3.1982   3.3349   3.3433   3.5254   3.5377   3.6350
     3.7047   3.7075   4.0059   4.0069   4.0581   4.0661   4.0663   4.1720
     4.2107   4.2178   4.2200   4.5078   4.5089   4.5400   4.5456   4.6593
     4.6638   4.7180   4.7252   4.9394   5.1864   5.6058   5.6124   5.6606
     5.6739   5.8019   5.8126   5.8172   5.8847   5.8902   5.9068   5.9077
     5.9401   6.0173   6.0331   6.1279   6.2774   6.3004   6.3047   6.3167
     6.3172   6.3185   6.3383   6.3601   6.3760   6.4621   6.4920   6.5878

          k =-0.2500 0.2500-0.0833 (167653 PWs)   bands (ev):

   -19.8503  -7.6500  -6.7248  -6.1944  -6.1944  -5.7562  -5.3572  -5.2541
    -5.2540  -5.0322  -5.0312  -4.9443  -4.9360  -4.8045  -4.7937  -4.6843
    -4.5963  -4.5916  -4.5725  -4.5701  -4.4009  -4.3884  -4.3876  -4.3617
    -4.3598  -4.3569  -4.3539  -4.3177  -4.3004  -4.2971  -4.2966  -4.2348
    -4.2241  -4.2044  -4.1989  -4.1446  -4.1436  -4.1252  -4.1081  -4.0932
    -4.0889  -4.0782  -4.0699  -4.0683  -4.0211  -4.0002  -4.0002  -3.9962
    -3.9940  -3.9844  -3.9646  -3.9343  -3.9233  -3.9045  -3.9029  -3.9002
    -3.8990  -3.8982  -3.8920  -3.8614  -3.8313  -3.8002  -3.7999  -3.7654
    -3.7418  -3.7338  -3.7304  -3.7232  -3.7079  -3.7076  -3.6962  -3.6459
    -3.6457  -3.6402  -3.6367  -3.5551  -3.5498  -3.5330  -3.5292  -3.4975
    -3.4883  -3.4821  -3.4569  -3.4560  -3.4122  -3.4111  -3.4103  -3.4093
    -3.3853  -3.3821  -3.3041  -3.3033  -3.3010  -3.2883  -3.2732  -3.2706
    -3.2573  -3.2570  -3.2507  -3.2499  -3.2071  -3.2065  -3.1854  -3.1807
    -3.1488  -3.1423  -3.1219  -3.1003  -3.0987  -3.0541  -3.0538  -3.0210
    -2.9940  -2.9929  -2.9925  -2.9899  -2.9882  -2.9872  -2.9586  -2.9516
    -2.9135  -2.9132  -2.8924  -2.8678  -2.8656  -2.8649  -2.8593  -2.8582
    -2.8543  -2.8541  -2.8193  -2.8181  -2.8180  -2.8127  -2.8097  -2.8077
    -2.7515  -2.7474  -2.7441  -2.7431  -2.7207  -2.7187  -2.7150  -2.6256
    -2.6160  -2.6154  -2.6065  -2.6055  -2.6006  -2.5990  -2.5982  -2.5899
    -2.5896  -2.5797  -2.5715  -2.5697  -2.5659  -2.5637  -2.5542  -2.5478
    -2.5464  -2.5252  -2.5145  -2.5140  -2.4983  -2.4980  -2.4814  -2.4787
    -2.4722  -2.4715  -2.4510  -2.4395  -2.4377  -2.4345  -2.4298  -2.3996
    -2.3972  -2.3946  -2.3392  -2.3350  -2.3214  -2.3206  -2.3090  -2.3068
    -2.2830  -2.2826  -2.2779  -2.2695  -2.2670  -2.2552  -2.2526  -2.2383
    -2.2367  -2.2149  -2.2100  -2.2007  -2.2004  -2.1929  -2.1906  -2.1811
    -2.1603  -2.1370  -2.0832  -2.0711  -2.0511  -2.0493  -2.0389  -2.0382
    -1.9887  -1.9851  -1.9721  -1.9523  -1.9464  -1.9407  -1.9360  -1.9214
    -1.9031  -1.9019  -1.8900  -1.8808  -1.8527  -1.8508  -1.8441  -1.8418
    -1.8411  -1.8355  -1.8311  -1.8172  -1.8066  -1.7975  -1.7973  -1.7964
    -1.7962  -1.7959  -1.7834  -1.7812  -1.7614  -1.7585  -1.7577  -1.7500
    -1.7392  -1.7391  -1.7351  -1.7336  -1.7299  -1.7263  -1.6943  -1.6905
    -1.6484  -1.6299  -1.6290  -1.5838  -1.5830  -1.5830  -1.5740  -1.5683
    -1.5609  -1.5545  -1.5525  -1.5417  -1.5396  -1.5283  -1.5205  -1.5094
    -1.4828  -1.4821  -1.4647  -1.4439  -1.4434  -1.4040  -1.4004  -1.3540
    -1.3508  -1.3310  -1.3093  -1.3056  -1.3052  -1.3015  -1.2979  -1.2805
    -1.2797  -1.2795  -1.2791  -1.2779  -1.2775  -1.2759  -1.2714  -1.2621
    -1.2463  -1.2437  -1.2133  -1.2125  -1.2067  -1.1902  -1.1884  -1.1859
    -1.1852  -1.1811  -1.1659  -1.1458  -1.1364  -1.1201  -1.1177  -1.1059
    -1.0977  -1.0868  -1.0842  -1.0575  -1.0564  -1.0512  -1.0459  -1.0119
    -1.0095  -1.0004  -0.9985  -0.9976  -0.9936  -0.9718  -0.9717  -0.9580
    -0.9507  -0.9498  -0.9402  -0.9376  -0.9363  -0.9294  -0.9257  -0.9157
    -0.9109  -0.9070  -0.9067  -0.8990  -0.8980  -0.8868  -0.8806  -0.8372
    -0.8368  -0.8356  -0.8353  -0.8338  -0.8296  -0.8035  -0.7917  -0.7880
    -0.7714  -0.7651  -0.7612  -0.7592  -0.7529  -0.7473  -0.7439  -0.7090
    -0.7058  -0.6965  -0.6960  -0.6766  -0.6760  -0.6609  -0.6370  -0.6289
    -0.6117  -0.6105  -0.5731  -0.5729  -0.5705  -0.5698  -0.5674  -0.5627
    -0.5621  -0.5617  -0.5571  -0.5552  -0.5229  -0.5225  -0.5221  -0.5214
    -0.5200  -0.5071  -0.5049  -0.5014  -0.4769  -0.2166  -0.2076  -0.1677
    -0.1517  -0.1303  -0.0699   0.0793   0.0812   0.1181   0.3933   0.4008
     0.7310   0.7446   0.7790   0.7834   0.8274   0.8357   0.9853   0.9957
     1.1179   1.1202   1.2346   1.7309   1.7746   1.7747   1.8112   1.8135
     1.9361   1.9576   2.0011   2.0117   2.1851   2.1904   2.4696   2.4927
     2.5123   2.5226   2.9439   2.9590   2.9776   2.9831   2.9949   2.9991
     3.0605   3.0630   3.1977   3.3351   3.3375   3.5251   3.5262   3.6367
     3.7032   3.7106   4.0028   4.0072   4.0600   4.0656   4.0727   4.1896
     4.2059   4.2104   4.2165   4.5058   4.5098   4.5416   4.5493   4.6597
     4.6632   4.7142   4.7358   4.9154   5.2058   5.6035   5.6092   5.6387
     5.6961   5.8106   5.8143   5.8360   5.8780   5.8927   5.9038   5.9081
     5.9703   6.0140   6.0210   6.0498   6.2907   6.2988   6.3099   6.3123
     6.3183   6.3220   6.3263   6.3410   6.4317   6.4403   6.5014   6.5722

          k = 0.2500-0.2500-0.0833 (167653 PWs)   bands (ev):

   -19.8503  -7.6500  -6.7248  -6.1944  -6.1944  -5.7562  -5.3572  -5.2541
    -5.2540  -5.0322  -5.0312  -4.9443  -4.9360  -4.8045  -4.7937  -4.6843
    -4.5963  -4.5916  -4.5725  -4.5701  -4.4009  -4.3884  -4.3876  -4.3617
    -4.3598  -4.3569  -4.3539  -4.3177  -4.3004  -4.2971  -4.2966  -4.2348
    -4.2241  -4.2044  -4.1989  -4.1446  -4.1436  -4.1252  -4.1081  -4.0932
    -4.0889  -4.0782  -4.0699  -4.0683  -4.0211  -4.0002  -4.0002  -3.9962
    -3.9940  -3.9844  -3.9646  -3.9343  -3.9233  -3.9045  -3.9029  -3.9002
    -3.8990  -3.8982  -3.8920  -3.8614  -3.8313  -3.8002  -3.7999  -3.7654
    -3.7418  -3.7338  -3.7304  -3.7232  -3.7079  -3.7076  -3.6962  -3.6459
    -3.6457  -3.6402  -3.6367  -3.5551  -3.5498  -3.5330  -3.5292  -3.4975
    -3.4883  -3.4821  -3.4569  -3.4560  -3.4122  -3.4111  -3.4103  -3.4093
    -3.3853  -3.3821  -3.3041  -3.3033  -3.3010  -3.2883  -3.2732  -3.2706
    -3.2573  -3.2570  -3.2507  -3.2499  -3.2071  -3.2065  -3.1854  -3.1807
    -3.1488  -3.1423  -3.1219  -3.1003  -3.0987  -3.0541  -3.0538  -3.0210
    -2.9940  -2.9929  -2.9925  -2.9899  -2.9882  -2.9872  -2.9586  -2.9516
    -2.9135  -2.9132  -2.8924  -2.8678  -2.8656  -2.8649  -2.8593  -2.8582
    -2.8543  -2.8541  -2.8193  -2.8181  -2.8180  -2.8127  -2.8097  -2.8077
    -2.7515  -2.7474  -2.7441  -2.7431  -2.7207  -2.7187  -2.7150  -2.6256
    -2.6160  -2.6154  -2.6065  -2.6055  -2.6006  -2.5990  -2.5982  -2.5899
    -2.5896  -2.5797  -2.5715  -2.5697  -2.5659  -2.5637  -2.5542  -2.5478
    -2.5464  -2.5252  -2.5145  -2.5140  -2.4983  -2.4980  -2.4814  -2.4787
    -2.4722  -2.4715  -2.4510  -2.4395  -2.4377  -2.4345  -2.4298  -2.3996
    -2.3972  -2.3946  -2.3392  -2.3350  -2.3214  -2.3206  -2.3090  -2.3068
    -2.2830  -2.2826  -2.2779  -2.2695  -2.2670  -2.2552  -2.2526  -2.2383
    -2.2367  -2.2149  -2.2100  -2.2007  -2.2004  -2.1929  -2.1906  -2.1811
    -2.1603  -2.1370  -2.0832  -2.0711  -2.0511  -2.0493  -2.0389  -2.0382
    -1.9887  -1.9851  -1.9721  -1.9523  -1.9464  -1.9407  -1.9360  -1.9214
    -1.9031  -1.9019  -1.8900  -1.8808  -1.8527  -1.8508  -1.8441  -1.8418
    -1.8411  -1.8355  -1.8311  -1.8172  -1.8066  -1.7975  -1.7973  -1.7964
    -1.7962  -1.7959  -1.7834  -1.7812  -1.7614  -1.7585  -1.7577  -1.7500
    -1.7392  -1.7391  -1.7351  -1.7336  -1.7299  -1.7263  -1.6943  -1.6905
    -1.6484  -1.6299  -1.6290  -1.5838  -1.5830  -1.5830  -1.5740  -1.5683
    -1.5609  -1.5545  -1.5525  -1.5417  -1.5396  -1.5283  -1.5205  -1.5094
    -1.4828  -1.4821  -1.4647  -1.4439  -1.4434  -1.4040  -1.4004  -1.3540
    -1.3508  -1.3310  -1.3093  -1.3056  -1.3052  -1.3015  -1.2979  -1.2805
    -1.2797  -1.2795  -1.2791  -1.2779  -1.2775  -1.2759  -1.2714  -1.2621
    -1.2463  -1.2437  -1.2133  -1.2125  -1.2067  -1.1902  -1.1884  -1.1859
    -1.1852  -1.1811  -1.1659  -1.1458  -1.1364  -1.1201  -1.1177  -1.1059
    -1.0977  -1.0868  -1.0842  -1.0575  -1.0564  -1.0512  -1.0459  -1.0119
    -1.0095  -1.0004  -0.9985  -0.9976  -0.9936  -0.9718  -0.9717  -0.9580
    -0.9507  -0.9498  -0.9402  -0.9376  -0.9363  -0.9294  -0.9257  -0.9157
    -0.9109  -0.9070  -0.9067  -0.8990  -0.8980  -0.8868  -0.8806  -0.8372
    -0.8368  -0.8356  -0.8353  -0.8338  -0.8296  -0.8035  -0.7917  -0.7880
    -0.7714  -0.7651  -0.7612  -0.7592  -0.7529  -0.7473  -0.7439  -0.7090
    -0.7058  -0.6965  -0.6960  -0.6766  -0.6760  -0.6609  -0.6370  -0.6289
    -0.6117  -0.6105  -0.5731  -0.5729  -0.5705  -0.5698  -0.5674  -0.5627
    -0.5621  -0.5617  -0.5571  -0.5552  -0.5229  -0.5225  -0.5221  -0.5214
    -0.5200  -0.5071  -0.5049  -0.5014  -0.4769  -0.2166  -0.2076  -0.1677
    -0.1517  -0.1303  -0.0699   0.0793   0.0812   0.1181   0.3933   0.4008
     0.7310   0.7446   0.7790   0.7834   0.8274   0.8357   0.9853   0.9957
     1.1179   1.1202   1.2346   1.7309   1.7746   1.7747   1.8112   1.8135
     1.9361   1.9576   2.0011   2.0117   2.1851   2.1904   2.4696   2.4927
     2.5123   2.5226   2.9439   2.9590   2.9776   2.9831   2.9949   2.9991
     3.0605   3.0630   3.1977   3.3351   3.3375   3.5251   3.5262   3.6367
     3.7032   3.7106   4.0028   4.0072   4.0600   4.0656   4.0727   4.1896
     4.2059   4.2104   4.2165   4.5058   4.5098   4.5416   4.5493   4.6597
     4.6632   4.7142   4.7358   4.9154   5.2058   5.6035   5.6092   5.6387
     5.6961   5.8106   5.8143   5.8360   5.8780   5.8927   5.9038   5.9081
     5.9705   6.0140   6.0210   6.0497   6.2907   6.2988   6.3099   6.3123
     6.3183   6.3220   6.3263   6.3410   6.4314   6.4406   6.5014   6.5723

          k =-0.2500 0.2500 0.2500 (167588 PWs)   bands (ev):

   -19.8503  -7.6500  -6.7248  -6.1944  -6.1944  -5.7562  -5.3572  -5.2541
    -5.2540  -5.0322  -5.0312  -4.9443  -4.9360  -4.8045  -4.7937  -4.6843
    -4.5963  -4.5916  -4.5725  -4.5701  -4.4009  -4.3884  -4.3876  -4.3618
    -4.3598  -4.3569  -4.3539  -4.3177  -4.3004  -4.2971  -4.2966  -4.2348
    -4.2241  -4.2044  -4.1989  -4.1446  -4.1436  -4.1252  -4.1080  -4.0932
    -4.0889  -4.0782  -4.0699  -4.0683  -4.0211  -4.0002  -4.0002  -3.9962
    -3.9940  -3.9844  -3.9646  -3.9343  -3.9233  -3.9045  -3.9029  -3.9002
    -3.8990  -3.8982  -3.8920  -3.8614  -3.8313  -3.8002  -3.7999  -3.7654
    -3.7418  -3.7338  -3.7303  -3.7232  -3.7079  -3.7076  -3.6962  -3.6459
    -3.6457  -3.6402  -3.6367  -3.5551  -3.5498  -3.5330  -3.5292  -3.4975
    -3.4883  -3.4821  -3.4569  -3.4560  -3.4122  -3.4111  -3.4103  -3.4093
    -3.3853  -3.3821  -3.3041  -3.3033  -3.3010  -3.2883  -3.2732  -3.2706
    -3.2573  -3.2570  -3.2507  -3.2499  -3.2071  -3.2065  -3.1854  -3.1807
    -3.1488  -3.1423  -3.1219  -3.1003  -3.0987  -3.0541  -3.0537  -3.0210
    -2.9940  -2.9929  -2.9925  -2.9899  -2.9882  -2.9872  -2.9586  -2.9516
    -2.9135  -2.9132  -2.8924  -2.8678  -2.8656  -2.8649  -2.8593  -2.8582
    -2.8543  -2.8541  -2.8193  -2.8181  -2.8180  -2.8127  -2.8097  -2.8076
    -2.7515  -2.7474  -2.7441  -2.7431  -2.7207  -2.7187  -2.7150  -2.6256
    -2.6160  -2.6154  -2.6065  -2.6055  -2.6006  -2.5990  -2.5982  -2.5898
    -2.5896  -2.5797  -2.5715  -2.5697  -2.5659  -2.5637  -2.5542  -2.5478
    -2.5464  -2.5252  -2.5145  -2.5140  -2.4983  -2.4980  -2.4814  -2.4787
    -2.4722  -2.4714  -2.4510  -2.4395  -2.4377  -2.4345  -2.4298  -2.3996
    -2.3972  -2.3946  -2.3392  -2.3350  -2.3214  -2.3206  -2.3090  -2.3068
    -2.2830  -2.2826  -2.2779  -2.2695  -2.2670  -2.2552  -2.2526  -2.2383
    -2.2367  -2.2149  -2.2100  -2.2007  -2.2004  -2.1929  -2.1906  -2.1811
    -2.1603  -2.1370  -2.0832  -2.0711  -2.0511  -2.0493  -2.0389  -2.0382
    -1.9886  -1.9851  -1.9721  -1.9523  -1.9464  -1.9406  -1.9360  -1.9214
    -1.9031  -1.9019  -1.8900  -1.8808  -1.8527  -1.8508  -1.8441  -1.8418
    -1.8411  -1.8355  -1.8311  -1.8172  -1.8066  -1.7975  -1.7973  -1.7964
    -1.7962  -1.7959  -1.7834  -1.7812  -1.7614  -1.7585  -1.7577  -1.7500
    -1.7392  -1.7391  -1.7351  -1.7336  -1.7299  -1.7263  -1.6943  -1.6905
    -1.6484  -1.6299  -1.6290  -1.5838  -1.5830  -1.5830  -1.5739  -1.5683
    -1.5609  -1.5545  -1.5525  -1.5417  -1.5396  -1.5283  -1.5205  -1.5094
    -1.4828  -1.4821  -1.4647  -1.4439  -1.4434  -1.4040  -1.4004  -1.3540
    -1.3508  -1.3310  -1.3093  -1.3057  -1.3052  -1.3015  -1.2980  -1.2805
    -1.2797  -1.2795  -1.2791  -1.2779  -1.2775  -1.2759  -1.2714  -1.2621
    -1.2463  -1.2437  -1.2133  -1.2125  -1.2067  -1.1902  -1.1884  -1.1859
    -1.1852  -1.1811  -1.1659  -1.1458  -1.1364  -1.1201  -1.1177  -1.1059
    -1.0977  -1.0868  -1.0842  -1.0575  -1.0564  -1.0512  -1.0459  -1.0119
    -1.0095  -1.0004  -0.9985  -0.9976  -0.9936  -0.9718  -0.9717  -0.9580
    -0.9507  -0.9498  -0.9402  -0.9376  -0.9363  -0.9294  -0.9258  -0.9157
    -0.9109  -0.9069  -0.9067  -0.8990  -0.8980  -0.8868  -0.8806  -0.8372
    -0.8368  -0.8356  -0.8353  -0.8338  -0.8296  -0.8035  -0.7917  -0.7880
    -0.7714  -0.7651  -0.7611  -0.7592  -0.7529  -0.7473  -0.7439  -0.7090
    -0.7058  -0.6965  -0.6960  -0.6766  -0.6760  -0.6609  -0.6370  -0.6289
    -0.6117  -0.6105  -0.5731  -0.5729  -0.5705  -0.5698  -0.5674  -0.5627
    -0.5621  -0.5617  -0.5571  -0.5552  -0.5229  -0.5225  -0.5221  -0.5214
    -0.5200  -0.5071  -0.5049  -0.5014  -0.4768  -0.2166  -0.2076  -0.1677
    -0.1517  -0.1303  -0.0699   0.0793   0.0812   0.1181   0.3933   0.4008
     0.7310   0.7446   0.7790   0.7834   0.8274   0.8357   0.9853   0.9957
     1.1179   1.1202   1.2346   1.7309   1.7746   1.7747   1.8112   1.8135
     1.9361   1.9576   2.0011   2.0117   2.1852   2.1905   2.4696   2.4927
     2.5123   2.5227   2.9439   2.9590   2.9776   2.9831   2.9949   2.9991
     3.0604   3.0630   3.1978   3.3351   3.3375   3.5251   3.5262   3.6367
     3.7032   3.7106   4.0028   4.0072   4.0600   4.0656   4.0727   4.1897
     4.2059   4.2104   4.2165   4.5058   4.5098   4.5416   4.5493   4.6597
     4.6632   4.7142   4.7357   4.9152   5.2028   5.6033   5.6092   5.6389
     5.6875   5.8076   5.8110   5.8323   5.8777   5.8930   5.9038   5.9082
     5.9909   5.9991   6.0197   6.1146   6.2710   6.2988   6.3065   6.3100
     6.3183   6.3224   6.3384   6.3773   6.4199   6.5124   6.5282   6.5721

     the Fermi energy is     1.0630 ev

!    total energy              =   -7379.97905200 Ry
     Harris-Foulkes estimate   =   -7379.97905200 Ry
     estimated scf accuracy    <          4.2E-09 Ry

     The total energy is the sum of the following terms:

     one-electron contribution =  -48854.56622979 Ry
     hartree contribution      =   24979.87289462 Ry
     xc contribution           =   -3556.25797865 Ry
     ewald contribution        =   20050.97127162 Ry
     smearing contrib. (-TS)   =       0.00099020 Ry

     convergence has been achieved in  25 iterations

     Writing output data file 1314612.save

     init_run     :    112.54s CPU    118.31s WALL (       1 calls)
     electrons    :   6167.33s CPU   6507.82s WALL (       1 calls)

     Called by init_run:
     wfcinit      :     81.63s CPU     86.99s WALL (       1 calls)
     potinit      :      3.48s CPU      3.54s WALL (       1 calls)

     Called by electrons:
     c_bands      :   4633.86s CPU   4904.85s WALL (      26 calls)
     sum_band     :   1010.40s CPU   1055.10s WALL (      26 calls)
     v_of_rho     :     18.46s CPU     19.60s WALL (      26 calls)
     newd         :    515.89s CPU    519.28s WALL (      26 calls)
     mix_rho      :      3.20s CPU      3.47s WALL (      26 calls)

     Called by c_bands:
     init_us_2    :      7.88s CPU      8.16s WALL (     318 calls)
     cegterg      :   4526.37s CPU   4722.57s WALL (     156 calls)

     Called by *egterg:
     h_psi        :   2098.66s CPU   2273.49s WALL (     773 calls)
     s_psi        :    188.30s CPU    189.44s WALL (     773 calls)
     g_psi        :      4.28s CPU      4.30s WALL (     611 calls)
     cdiaghg      :   1046.83s CPU   1049.16s WALL (     761 calls)

     Called by h_psi:
     add_vuspsi   :    187.85s CPU    188.96s WALL (     773 calls)

     General routines
     calbec       :    479.08s CPU    480.28s WALL (     929 calls)
     fft          :    253.09s CPU    255.42s WALL (     416 calls)
     ffts         :      2.04s CPU      2.19s WALL (      52 calls)
     fftw         :   1901.84s CPU   2104.43s WALL (  416108 calls)
     interpolate  :      5.10s CPU      5.51s WALL (      52 calls)
     davcio       :      0.01s CPU      0.12s WALL (       6 calls)

     Parallel routines
     fft_scatter  :   1690.76s CPU   1874.17s WALL (  416576 calls)

     PWSCF        :     1h44m CPU        1h50m WALL


   This run was terminated on:  15:27:44  10Aug2015            

=------------------------------------------------------------------------------=
   JOB DONE.
=------------------------------------------------------------------------------=
