Setting SGE environment for SCC

     Program PWSCF v.5.1.2 starts on  7Aug2015 at 15:31:19 

     This program is part of the open-source Quantum ESPRESSO suite
     for quantum simulation of materials; please cite
         "P. Giannozzi et al., J. Phys.:Condens. Matter 21 395502 (2009);
          URL http://www.quantum-espresso.org", 
     in publications or presentations arising from this work. More details at
     http://www.quantum-espresso.org/quote

     Parallel version (MPI), running on    32 processors
     R & G space division:  proc/nbgrp/npool/nimage =      32
     Reading input from top.O1.Au5859.d.3.1.phi.0.psi.0.in
Warning: card &IONS ignored
Warning: card / ignored
Warning: card &CELL ignored
Warning: card / ignored

     Current dimensions of program PWSCF are:
     Max number of different atomic species (ntypx) = 10
     Max number of k-points (npk) =  40000
     Max angular momentum in pseudopotentials (lmaxx) =  3

     Subspace diagonalization in iterative solution of the eigenvalue problem:
     a serial algorithm will be used


     Parallelization info
     --------------------
     sticks:   dense  smooth     PW     G-vecs:    dense   smooth      PW
     Min         578     289     74               118518    41891    5486
     Max         579     290     75               118533    41932    5497
     Sum       18505    9265   2385              3792731  1341081  175711


     Title: 
     top.O1.Au5859.d.3.1.phi.0.psi.0                                            


     bravais-lattice index     =            8
     lattice parameter (alat)  =      24.1233  a.u.
     unit-cell volume          =   28076.2361 (a.u.)^3
     number of atoms/cell      =           75
     number of atomic types    =            3
     number of electrons       =       800.00
     number of Kohn-Sham states=          480
     kinetic-energy cutoff     =      50.0000  Ry
     charge density cutoff     =     400.0000  Ry
     convergence threshold     =      1.0E-08
     mixing beta               =       0.7000
     number of iterations used =            8  plain     mixing
     Exchange-correlation      =  SLA  PW   PBE  PBE ( 1  4  3  4 0 0)

     celldm(1)=  24.123277  celldm(2)=   1.000000  celldm(3)=   2.000000
     celldm(4)=   0.000000  celldm(5)=   0.000000  celldm(6)=   0.000000

     crystal axes: (cart. coord. in units of alat)
               a(1) = (   1.000000   0.000000   0.000000 )  
               a(2) = (   0.000000   1.000000   0.000000 )  
               a(3) = (   0.000000   0.000000   2.000000 )  

     reciprocal axes: (cart. coord. in units 2 pi/alat)
               b(1) = (  1.000000  0.000000  0.000000 )  
               b(2) = (  0.000000  1.000000  0.000000 )  
               b(3) = (  0.000000  0.000000  0.500000 )  


     PseudoPot. # 1 for Au read from file:
     /home/scc/andrejb/qe/pseudo/Au.pbe-nd-van.UPF
     MD5 check sum: 458681b50f36d87ef23c61b04bba420a
     Pseudo is Ultrasoft + core correction, Zval = 11.0
     Generated by new atomic code, or converted to UPF format
     Using radial grid of  985 points,  3 beta functions with: 
                l(1) =   1
                l(2) =   2
                l(3) =   2
     Q(r) pseudized with  8 coefficients,  rinner =    1.100   1.100   1.100
                                                       1.100   1.100

     PseudoPot. # 2 for H  read from file:
     /home/scc/andrejb/qe/pseudo/H.pbe-van_ak.UPF
     MD5 check sum: 403db7282739603aa925980fa9b8608d
     Pseudo is Ultrasoft, Zval =  1.0
     Generated by new atomic code, or converted to UPF format
     Using radial grid of  615 points,  1 beta functions with: 
                l(1) =   0
     Q(r) pseudized with  8 coefficients,  rinner =    0.800

     PseudoPot. # 3 for O  read from file:
     /home/scc/andrejb/qe/pseudo/O.pbe-van_ak.UPF
     MD5 check sum: 4b8c549914a63cae506c6ff22b5af4fe
     Pseudo is Ultrasoft, Zval =  6.0
     Generated by new atomic code, or converted to UPF format
     Using radial grid of  737 points,  4 beta functions with: 
                l(1) =   0
                l(2) =   0
                l(3) =   1
                l(4) =   1
     Q(r) pseudized with  8 coefficients,  rinner =    0.800   0.800   0.800


     atomic species   valence    mass     pseudopotential
        Au            11.00   196.96657     Au( 1.00)
        H              1.00     1.01000     H ( 1.00)
        O              6.00    16.00000     O ( 1.00)

     No symmetry found



   Cartesian axes

     site n.     atom                  positions (alat units)
         1           O   tau(   1) = (   0.1666051   0.1666105   0.9536641  )
         2           H   tau(   2) = (   0.1195275   0.1274390   0.9991580  )
         3           H   tau(   3) = (   0.2122554   0.2046122   1.0015217  )
         4           Au  tau(   4) = (   0.0000000   0.0000000   0.0000000  )
         5           Au  tau(   5) = (   0.3332217   0.0000000   0.0000000  )
         6           Au  tau(   6) = (   0.6664434   0.0000000   0.0000000  )
         7           Au  tau(   7) = (   0.1666109   0.1666109   0.0000000  )
         8           Au  tau(   8) = (   0.4998326   0.1666109   0.0000000  )
         9           Au  tau(   9) = (   0.8330542   0.1666109   0.0000000  )
        10           Au  tau(  10) = (   0.0000000   0.3332217   0.0000000  )
        11           Au  tau(  11) = (   0.3332217   0.3332217   0.0000000  )
        12           Au  tau(  12) = (   0.6664434   0.3332217   0.0000000  )
        13           Au  tau(  13) = (   0.1666109   0.4998326   0.0000000  )
        14           Au  tau(  14) = (   0.4998326   0.4998326   0.0000000  )
        15           Au  tau(  15) = (   0.8330542   0.4998326   0.0000000  )
        16           Au  tau(  16) = (   0.0000000   0.6664434   0.0000000  )
        17           Au  tau(  17) = (   0.3332217   0.6664434   0.0000000  )
        18           Au  tau(  18) = (   0.6664434   0.6664434   0.0000000  )
        19           Au  tau(  19) = (   0.1666109   0.8330542   0.0000000  )
        20           Au  tau(  20) = (   0.4998326   0.8330542   0.0000000  )
        21           Au  tau(  21) = (   0.8330542   0.8330542   0.0000000  )
        22           Au  tau(  22) = (   0.1666109   0.0000000   0.1666109  )
        23           Au  tau(  23) = (   0.4998326   0.0000000   0.1666109  )
        24           Au  tau(  24) = (   0.8330542   0.0000000   0.1666109  )
        25           Au  tau(  25) = (   0.0000000   0.1666109   0.1666109  )
        26           Au  tau(  26) = (   0.3332217   0.1666109   0.1666109  )
        27           Au  tau(  27) = (   0.6664434   0.1666109   0.1666109  )
        28           Au  tau(  28) = (   0.1666109   0.3332217   0.1666109  )
        29           Au  tau(  29) = (   0.4998326   0.3332217   0.1666109  )
        30           Au  tau(  30) = (   0.8330542   0.3332217   0.1666109  )
        31           Au  tau(  31) = (   0.0000000   0.4998326   0.1666109  )
        32           Au  tau(  32) = (   0.3332217   0.4998326   0.1666109  )
        33           Au  tau(  33) = (   0.6664434   0.4998326   0.1666109  )
        34           Au  tau(  34) = (   0.1666109   0.6664434   0.1666109  )
        35           Au  tau(  35) = (   0.4998326   0.6664434   0.1666109  )
        36           Au  tau(  36) = (   0.8330542   0.6664434   0.1666109  )
        37           Au  tau(  37) = (   0.0000000   0.8330542   0.1666109  )
        38           Au  tau(  38) = (   0.3332217   0.8330542   0.1666109  )
        39           Au  tau(  39) = (   0.6664434   0.8330542   0.1666109  )
        40           Au  tau(  40) = (  -0.0000182  -0.0000182   0.3335478  )
        41           Au  tau(  41) = (   0.3332215  -0.0000181   0.3335473  )
        42           Au  tau(  42) = (   0.6664447  -0.0000183   0.3335481  )
        43           Au  tau(  43) = (  -0.0000181   0.3332215   0.3335473  )
        44           Au  tau(  44) = (   0.3332215   0.3332215   0.3335468  )
        45           Au  tau(  45) = (   0.6664445   0.3332215   0.3335477  )
        46           Au  tau(  46) = (  -0.0000183   0.6664447   0.3335481  )
        47           Au  tau(  47) = (   0.3332215   0.6664445   0.3335477  )
        48           Au  tau(  48) = (   0.6664446   0.6664446   0.3335486  )
        49           Au  tau(  49) = (   0.1666097   0.1666097   0.3335483  )
        50           Au  tau(  50) = (   0.4998320   0.1666098   0.3335477  )
        51           Au  tau(  51) = (   0.8330732   0.1666096   0.3335480  )
        52           Au  tau(  52) = (   0.1666098   0.4998320   0.3335477  )
        53           Au  tau(  53) = (   0.4998322   0.4998322   0.3335470  )
        54           Au  tau(  54) = (   0.8330731   0.4998322   0.3335474  )
        55           Au  tau(  55) = (   0.1666096   0.8330732   0.3335480  )
        56           Au  tau(  56) = (   0.4998322   0.8330731   0.3335474  )
        57           Au  tau(  57) = (   0.8330731   0.8330731   0.3335478  )
        58           Au  tau(  58) = (   0.1666104  -0.0000111   0.4993095  )
        59           Au  tau(  59) = (   0.4998323  -0.0000112   0.4993099  )
        60           Au  tau(  60) = (   0.8330660  -0.0000111   0.4993009  )
        61           Au  tau(  61) = (  -0.0000111   0.1666104   0.4993095  )
        62           Au  tau(  62) = (   0.3332213   0.1666106   0.4993185  )
        63           Au  tau(  63) = (   0.6664437   0.1666106   0.4993187  )
        64           Au  tau(  64) = (   0.1666106   0.3332213   0.4993185  )
        65           Au  tau(  65) = (   0.4998324   0.3332216   0.4993185  )
        66           Au  tau(  66) = (   0.8330658   0.3332215   0.4993102  )
        67           Au  tau(  67) = (  -0.0000112   0.4998323   0.4993099  )
        68           Au  tau(  68) = (   0.3332216   0.4998324   0.4993185  )
        69           Au  tau(  69) = (   0.6664437   0.4998325   0.4993187  )
        70           Au  tau(  70) = (   0.1666106   0.6664437   0.4993187  )
        71           Au  tau(  71) = (   0.4998325   0.6664437   0.4993187  )
        72           Au  tau(  72) = (   0.8330658   0.6664438   0.4993102  )
        73           Au  tau(  73) = (  -0.0000111   0.8330660   0.4993009  )
        74           Au  tau(  74) = (   0.3332215   0.8330658   0.4993102  )
        75           Au  tau(  75) = (   0.6664438   0.8330658   0.4993102  )

     number of k points=     6  Marzari-Vanderbilt smearing, width (Ry)=  0.0200
                       cart. coord. in units 2pi/alat
        k(    1) = (   0.2500000   0.2500000   0.0833333), wk =   0.3333333
        k(    2) = (   0.2500000   0.2500000  -0.2500000), wk =   0.3333333
        k(    3) = (  -0.2500000  -0.2500000   0.0833333), wk =   0.3333333
        k(    4) = (  -0.2500000   0.2500000  -0.0833333), wk =   0.3333333
        k(    5) = (   0.2500000  -0.2500000  -0.0833333), wk =   0.3333333
        k(    6) = (  -0.2500000   0.2500000   0.2500000), wk =   0.3333333

     Dense  grid:  3792731 G-vectors     FFT dimensions: ( 160, 160, 320)

     Smooth grid:  1341081 G-vectors     FFT dimensions: ( 120, 120, 225)

     Largest allocated arrays     est. size (Mb)     dimensions
        Kohn-Sham Wavefunctions        38.58 Mb     (    5267,  480)
        NL pseudopotentials            76.03 Mb     (    5267,  946)
        Each V/rho on FFT grid          3.91 Mb     (  256000)
        Each G-vector array             0.90 Mb     (  118520)
        G-vector shells                 0.08 Mb     (   10286)
     Largest temporary arrays     est. size (Mb)     dimensions
        Auxiliary wavefunctions       154.31 Mb     (    5267, 1920)
        Each subspace H/S matrix       56.25 Mb     (    1920, 1920)
        Each <psi_i|beta_j> matrix      6.93 Mb     (     946,  480)
        Arrays for rho mixing          31.25 Mb     (  256000,    8)

     Initial potential from superposition of free atoms
     Check: negative starting charge=   -1.944521

     starting charge  799.16392, renormalised to  800.00000

     negative rho (up, down):  1.947E+00 0.000E+00
     Starting wfc are  654 randomized atomic wfcs

     total cpu time spent up to now is      134.1 secs

     Self-consistent Calculation

     iteration #  1     ecut=    50.00 Ry     beta=0.70
     Davidson diagonalization with overlap
     ethr =  1.00E-02,  avg # of iterations =  3.0

     Threshold (ethr) on eigenvalues was too large:
     Diagonalizing with lowered threshold

     Davidson diagonalization with overlap
     ethr =  5.02E-04,  avg # of iterations =  2.0

     negative rho (up, down):  1.932E+00 0.000E+00

     total cpu time spent up to now is      658.3 secs

     total energy              =   -7377.39574516 Ry
     Harris-Foulkes estimate   =   -7380.96448746 Ry
     estimated scf accuracy    <       4.52955282 Ry

     iteration #  2     ecut=    50.00 Ry     beta=0.70
     Davidson diagonalization with overlap
     ethr =  5.66E-04,  avg # of iterations = 11.2

     negative rho (up, down):  1.930E+00 0.000E+00

     total cpu time spent up to now is     1493.8 secs

     total energy              =   -7368.72433993 Ry
     Harris-Foulkes estimate   =   -7387.99199690 Ry
     estimated scf accuracy    <      99.13424225 Ry

     iteration #  3     ecut=    50.00 Ry     beta=0.70
     Davidson diagonalization with overlap
     ethr =  5.66E-04,  avg # of iterations =  6.0

     negative rho (up, down):  1.947E+00 0.000E+00

     total cpu time spent up to now is     1997.1 secs

     total energy              =   -7378.57434579 Ry
     Harris-Foulkes estimate   =   -7380.68477638 Ry
     estimated scf accuracy    <       8.35035609 Ry

     iteration #  4     ecut=    50.00 Ry     beta=0.70
     Davidson diagonalization with overlap
     ethr =  5.66E-04,  avg # of iterations =  6.5

     negative rho (up, down):  1.957E+00 0.000E+00

     total cpu time spent up to now is     2298.7 secs

     total energy              =   -7379.85797169 Ry
     Harris-Foulkes estimate   =   -7380.20185811 Ry
     estimated scf accuracy    <       0.96023438 Ry

     iteration #  5     ecut=    50.00 Ry     beta=0.70
     Davidson diagonalization with overlap
     ethr =  1.20E-04,  avg # of iterations =  8.3

     negative rho (up, down):  1.960E+00 0.000E+00

     total cpu time spent up to now is     2653.5 secs

     total energy              =   -7379.73580302 Ry
     Harris-Foulkes estimate   =   -7380.23157256 Ry
     estimated scf accuracy    <       4.04308529 Ry

     iteration #  6     ecut=    50.00 Ry     beta=0.70
     Davidson diagonalization with overlap
     ethr =  1.20E-04,  avg # of iterations =  7.0

     negative rho (up, down):  1.966E+00 0.000E+00

     total cpu time spent up to now is     2976.1 secs

     total energy              =   -7379.97933919 Ry
     Harris-Foulkes estimate   =   -7380.02496536 Ry
     estimated scf accuracy    <       0.24262895 Ry

     iteration #  7     ecut=    50.00 Ry     beta=0.70
     Davidson diagonalization with overlap
     ethr =  3.03E-05,  avg # of iterations =  7.3

     negative rho (up, down):  1.967E+00 0.000E+00

     total cpu time spent up to now is     3290.0 secs

     total energy              =   -7379.97806533 Ry
     Harris-Foulkes estimate   =   -7380.00909247 Ry
     estimated scf accuracy    <       0.14453745 Ry

     iteration #  8     ecut=    50.00 Ry     beta=0.70
     Davidson diagonalization with overlap
     ethr =  1.81E-05,  avg # of iterations =  6.0

     negative rho (up, down):  1.969E+00 0.000E+00

     total cpu time spent up to now is     3562.1 secs

     total energy              =   -7379.98031871 Ry
     Harris-Foulkes estimate   =   -7379.99829763 Ry
     estimated scf accuracy    <       0.07528160 Ry

     iteration #  9     ecut=    50.00 Ry     beta=0.70
     Davidson diagonalization with overlap
     ethr =  9.41E-06,  avg # of iterations = 11.2

     negative rho (up, down):  1.969E+00 0.000E+00

     total cpu time spent up to now is     3903.3 secs

     total energy              =   -7379.97842934 Ry
     Harris-Foulkes estimate   =   -7379.98955728 Ry
     estimated scf accuracy    <       0.03842176 Ry

     iteration # 10     ecut=    50.00 Ry     beta=0.70
     Davidson diagonalization with overlap
     ethr =  4.80E-06,  avg # of iterations = 10.8

     negative rho (up, down):  1.971E+00 0.000E+00

     total cpu time spent up to now is     4261.1 secs

     total energy              =   -7379.97824945 Ry
     Harris-Foulkes estimate   =   -7379.98343796 Ry
     estimated scf accuracy    <       0.01396996 Ry

     iteration # 11     ecut=    50.00 Ry     beta=0.70
     Davidson diagonalization with overlap
     ethr =  1.75E-06,  avg # of iterations =  9.7

     negative rho (up, down):  1.972E+00 0.000E+00

     total cpu time spent up to now is     4593.5 secs

     total energy              =   -7379.97858319 Ry
     Harris-Foulkes estimate   =   -7379.98031573 Ry
     estimated scf accuracy    <       0.00604990 Ry

     iteration # 12     ecut=    50.00 Ry     beta=0.70
     Davidson diagonalization with overlap
     ethr =  7.56E-07,  avg # of iterations =  3.8

     negative rho (up, down):  1.972E+00 0.000E+00

     total cpu time spent up to now is     4852.6 secs

     total energy              =   -7379.97769970 Ry
     Harris-Foulkes estimate   =   -7379.97924100 Ry
     estimated scf accuracy    <       0.00207537 Ry

     iteration # 13     ecut=    50.00 Ry     beta=0.70
     Davidson diagonalization with overlap
     ethr =  2.59E-07,  avg # of iterations = 13.3

     negative rho (up, down):  1.972E+00 0.000E+00

     total cpu time spent up to now is     5393.1 secs

     total energy              =   -7379.97638721 Ry
     Harris-Foulkes estimate   =   -7379.98028124 Ry
     estimated scf accuracy    <       0.02288436 Ry

     iteration # 14     ecut=    50.00 Ry     beta=0.70
     Davidson diagonalization with overlap
     ethr =  2.59E-07,  avg # of iterations =  3.0

     negative rho (up, down):  1.972E+00 0.000E+00

     total cpu time spent up to now is     5730.2 secs

     total energy              =   -7379.97824477 Ry
     Harris-Foulkes estimate   =   -7379.97835452 Ry
     estimated scf accuracy    <       0.00027511 Ry

     iteration # 15     ecut=    50.00 Ry     beta=0.70
     Davidson diagonalization with overlap
     ethr =  3.44E-08,  avg # of iterations =  3.0

     negative rho (up, down):  1.971E+00 0.000E+00

     total cpu time spent up to now is     6057.8 secs

     total energy              =   -7379.97823245 Ry
     Harris-Foulkes estimate   =   -7379.97839273 Ry
     estimated scf accuracy    <       0.00067629 Ry

     iteration # 16     ecut=    50.00 Ry     beta=0.70
     Davidson diagonalization with overlap
     ethr =  3.44E-08,  avg # of iterations =  2.0

     negative rho (up, down):  1.971E+00 0.000E+00

     total cpu time spent up to now is     6329.0 secs

     total energy              =   -7379.97829058 Ry
     Harris-Foulkes estimate   =   -7379.97833364 Ry
     estimated scf accuracy    <       0.00024167 Ry

     iteration # 17     ecut=    50.00 Ry     beta=0.70
     Davidson diagonalization with overlap
     ethr =  3.02E-08,  avg # of iterations =  1.0

     negative rho (up, down):  1.971E+00 0.000E+00

     total cpu time spent up to now is     6546.7 secs

     total energy              =   -7379.97830596 Ry
     Harris-Foulkes estimate   =   -7379.97833149 Ry
     estimated scf accuracy    <       0.00017513 Ry

     iteration # 18     ecut=    50.00 Ry     beta=0.70
     Davidson diagonalization with overlap
     ethr =  2.19E-08,  avg # of iterations =  1.0

     negative rho (up, down):  1.971E+00 0.000E+00

     total cpu time spent up to now is     6773.9 secs

     total energy              =   -7379.97831779 Ry
     Harris-Foulkes estimate   =   -7379.97831932 Ry
     estimated scf accuracy    <       0.00000385 Ry

     iteration # 19     ecut=    50.00 Ry     beta=0.70
     Davidson diagonalization with overlap
     ethr =  4.81E-10,  avg # of iterations =  3.0

     negative rho (up, down):  1.971E+00 0.000E+00

     total cpu time spent up to now is     7100.7 secs

     total energy              =   -7379.97831844 Ry
     Harris-Foulkes estimate   =   -7379.97831933 Ry
     estimated scf accuracy    <       0.00000272 Ry

     iteration # 20     ecut=    50.00 Ry     beta=0.70
     Davidson diagonalization with overlap
     ethr =  3.41E-10,  avg # of iterations =  2.0

     negative rho (up, down):  1.971E+00 0.000E+00

     total cpu time spent up to now is     7359.6 secs

     total energy              =   -7379.97831865 Ry
     Harris-Foulkes estimate   =   -7379.97831917 Ry
     estimated scf accuracy    <       0.00000189 Ry

     iteration # 21     ecut=    50.00 Ry     beta=0.70
     Davidson diagonalization with overlap
     ethr =  2.36E-10,  avg # of iterations =  2.0

     negative rho (up, down):  1.971E+00 0.000E+00

     total cpu time spent up to now is     7597.1 secs

     total energy              =   -7379.97831877 Ry
     Harris-Foulkes estimate   =   -7379.97831919 Ry
     estimated scf accuracy    <       0.00000214 Ry

     iteration # 22     ecut=    50.00 Ry     beta=0.70
     Davidson diagonalization with overlap
     ethr =  2.36E-10,  avg # of iterations =  2.0

     negative rho (up, down):  1.971E+00 0.000E+00

     total cpu time spent up to now is     7834.2 secs

     total energy              =   -7379.97831893 Ry
     Harris-Foulkes estimate   =   -7379.97831903 Ry
     estimated scf accuracy    <       0.00000040 Ry

     iteration # 23     ecut=    50.00 Ry     beta=0.70
     Davidson diagonalization with overlap
     ethr =  5.05E-11,  avg # of iterations =  2.0

     negative rho (up, down):  1.971E+00 0.000E+00

     total cpu time spent up to now is     8069.1 secs

     total energy              =   -7379.97831893 Ry
     Harris-Foulkes estimate   =   -7379.97831902 Ry
     estimated scf accuracy    <       0.00000033 Ry

     iteration # 24     ecut=    50.00 Ry     beta=0.70
     Davidson diagonalization with overlap
     ethr =  4.14E-11,  avg # of iterations =  2.0

     negative rho (up, down):  1.971E+00 0.000E+00

     total cpu time spent up to now is     8285.8 secs

     total energy              =   -7379.97831895 Ry
     Harris-Foulkes estimate   =   -7379.97831903 Ry
     estimated scf accuracy    <       0.00000043 Ry

     iteration # 25     ecut=    50.00 Ry     beta=0.70
     Davidson diagonalization with overlap
     ethr =  4.14E-11,  avg # of iterations =  2.0

     negative rho (up, down):  1.971E+00 0.000E+00

     total cpu time spent up to now is     8517.4 secs

     total energy              =   -7379.97831899 Ry
     Harris-Foulkes estimate   =   -7379.97831899 Ry
     estimated scf accuracy    <       0.00000004 Ry

     iteration # 26     ecut=    50.00 Ry     beta=0.70
     Davidson diagonalization with overlap
     ethr =  4.99E-12,  avg # of iterations =  2.0

     negative rho (up, down):  1.971E+00 0.000E+00

     total cpu time spent up to now is     8762.6 secs

     total energy              =   -7379.97831899 Ry
     Harris-Foulkes estimate   =   -7379.97831900 Ry
     estimated scf accuracy    <       0.00000003 Ry

     iteration # 27     ecut=    50.00 Ry     beta=0.70
     Davidson diagonalization with overlap
     ethr =  3.28E-12,  avg # of iterations =  1.0

     negative rho (up, down):  1.971E+00 0.000E+00

     total cpu time spent up to now is     8976.2 secs

     End of self-consistent calculation

          k = 0.2500 0.2500 0.0833 (167653 PWs)   bands (ev):

   -19.1772  -6.9902  -6.7898  -6.2596  -6.2594  -5.8213  -5.4178  -5.3191
    -5.3190  -5.0974  -5.0973  -5.0004  -5.0002  -4.8669  -4.8592  -4.7498
    -4.6612  -4.6573  -4.6361  -4.6360  -4.4549  -4.4537  -4.4536  -4.4269
    -4.4229  -4.4223  -4.4187  -4.3652  -4.3650  -4.3624  -4.3623  -4.2987
    -4.2702  -4.2702  -4.2135  -4.2102  -4.2089  -4.1729  -4.1727  -4.1588
    -4.1544  -4.1356  -4.1356  -4.0981  -4.0659  -4.0657  -4.0634  -4.0602
    -4.0602  -4.0298  -3.9994  -3.9993  -3.9699  -3.9697  -3.9658  -3.9658
    -3.9636  -3.9577  -3.9255  -3.9253  -3.8652  -3.8651  -3.8329  -3.8064
    -3.7998  -3.7962  -3.7958  -3.7736  -3.7736  -3.7617  -3.7114  -3.7114
    -3.7054  -3.7053  -3.6200  -3.6198  -3.5978  -3.5976  -3.5631  -3.5599
    -3.5480  -3.5218  -3.5218  -3.4775  -3.4774  -3.4749  -3.4748  -3.4501
    -3.4500  -3.3695  -3.3694  -3.3676  -3.3541  -3.3382  -3.3356  -3.3227
    -3.3226  -3.3154  -3.3153  -3.2726  -3.2726  -3.2496  -3.2494  -3.2132
    -3.2131  -3.1866  -3.1865  -3.1656  -3.1655  -3.1194  -3.1192  -3.0867
    -3.0592  -3.0588  -3.0582  -3.0576  -3.0537  -3.0536  -3.0259  -3.0174
    -2.9783  -2.9783  -2.9571  -2.9336  -2.9306  -2.9306  -2.9240  -2.9237
    -2.9196  -2.9196  -2.8844  -2.8834  -2.8834  -2.8779  -2.8779  -2.8729
    -2.8178  -2.8118  -2.8078  -2.8077  -2.7856  -2.7855  -2.7803  -2.6917
    -2.6810  -2.6810  -2.6715  -2.6713  -2.6653  -2.6641  -2.6631  -2.6553
    -2.6553  -2.6446  -2.6372  -2.6341  -2.6339  -2.6295  -2.6196  -2.6141
    -2.6121  -2.5899  -2.5793  -2.5791  -2.5633  -2.5633  -2.5463  -2.5462
    -2.5375  -2.5374  -2.5168  -2.5041  -2.5041  -2.4987  -2.4986  -2.4648
    -2.4624  -2.4624  -2.4042  -2.4010  -2.3861  -2.3860  -2.3754  -2.3709
    -2.3478  -2.3476  -2.3435  -2.3308  -2.3306  -2.3191  -2.3188  -2.3022
    -2.3020  -2.2751  -2.2751  -2.2648  -2.2647  -2.2549  -2.2548  -2.2376
    -2.2247  -2.2040  -2.1350  -2.1337  -2.1143  -2.1142  -2.1024  -2.1023
    -2.0523  -2.0520  -2.0369  -2.0174  -2.0049  -2.0048  -1.9867  -1.9683
    -1.9682  -1.9551  -1.9482  -1.9161  -1.9158  -1.9144  -1.9075  -1.9075
    -1.8997  -1.8996  -1.8791  -1.8727  -1.8622  -1.8621  -1.8616  -1.8616
    -1.8605  -1.8602  -1.8464  -1.8264  -1.8264  -1.8230  -1.8176  -1.8047
    -1.8045  -1.8002  -1.8001  -1.7944  -1.7924  -1.7583  -1.7580  -1.7134
    -1.6943  -1.6940  -1.6484  -1.6483  -1.6482  -1.6375  -1.6372  -1.6236
    -1.6233  -1.6159  -1.6157  -1.6054  -1.6052  -1.5849  -1.5849  -1.5479
    -1.5478  -1.5304  -1.5081  -1.5080  -1.4686  -1.4684  -1.4181  -1.4180
    -1.3970  -1.3723  -1.3710  -1.3705  -1.3649  -1.3641  -1.3443  -1.3442
    -1.3433  -1.3431  -1.3413  -1.3409  -1.3403  -1.3391  -1.3377  -1.3109
    -1.3109  -1.2779  -1.2765  -1.2765  -1.2549  -1.2549  -1.2499  -1.2497
    -1.2467  -1.2362  -1.2085  -1.2083  -1.1840  -1.1828  -1.1822  -1.1624
    -1.1510  -1.1509  -1.1449  -1.1217  -1.1216  -1.1147  -1.1146  -1.0761
    -1.0758  -1.0641  -1.0640  -1.0631  -1.0630  -1.0368  -1.0367  -1.0226
    -1.0153  -1.0152  -1.0033  -1.0031  -1.0015  -1.0013  -0.9903  -0.9802
    -0.9792  -0.9727  -0.9726  -0.9657  -0.9616  -0.9615  -0.9453  -0.9037
    -0.9027  -0.9009  -0.8987  -0.8958  -0.8958  -0.8665  -0.8664  -0.8526
    -0.8351  -0.8348  -0.8265  -0.8265  -0.8182  -0.8110  -0.8098  -0.7733
    -0.7731  -0.7618  -0.7618  -0.7415  -0.7414  -0.7260  -0.7019  -0.6938
    -0.6761  -0.6759  -0.6383  -0.6381  -0.6352  -0.6349  -0.6341  -0.6281
    -0.6272  -0.6271  -0.6231  -0.6204  -0.5873  -0.5872  -0.5859  -0.5859
    -0.5844  -0.5841  -0.5704  -0.5702  -0.5420  -0.2796  -0.2737  -0.2278
    -0.2271  -0.1964  -0.1378   0.0148   0.0149   0.0456   0.3303   0.3304
     0.6710   0.6717   0.7149   0.7149   0.7648   0.7651   0.9244   0.9247
     1.0529   1.0540   1.1680   1.6634   1.7059   1.7091   1.7464   1.7467
     1.8838   1.8853   1.9400   1.9403   2.1226   2.1227   2.4080   2.4343
     2.4353   2.4557   2.8905   2.8918   2.9134   2.9151   2.9306   2.9308
     2.9964   2.9970   3.1549   3.2749   3.2756   3.4596   3.4703   3.5714
     3.6433   3.6435   3.9432   3.9437   4.0004   4.0016   4.0017   4.1484
     4.1489   4.1702   4.1708   4.4441   4.4460   4.4825   4.4825   4.5958
     4.6013   4.6634   4.6648   4.9447   5.0377   5.5457   5.5462   5.6246
     5.6263   5.7530   5.7534   5.8235   5.8252   5.8265   5.8419   5.8421
     5.9362   5.9542   5.9748   6.1548   6.2412   6.2420   6.2528   6.2534
     6.2587   6.2683   6.2743   6.3443   6.4274   6.4311   6.4890   6.5444

          k = 0.2500 0.2500-0.2500 (167588 PWs)   bands (ev):

   -19.1772  -6.9902  -6.7898  -6.2596  -6.2594  -5.8213  -5.4178  -5.3191
    -5.3190  -5.0974  -5.0973  -5.0004  -5.0002  -4.8669  -4.8592  -4.7498
    -4.6612  -4.6573  -4.6361  -4.6359  -4.4549  -4.4537  -4.4536  -4.4269
    -4.4229  -4.4223  -4.4187  -4.3652  -4.3650  -4.3624  -4.3623  -4.2987
    -4.2702  -4.2701  -4.2135  -4.2102  -4.2089  -4.1729  -4.1726  -4.1588
    -4.1544  -4.1356  -4.1356  -4.0981  -4.0659  -4.0658  -4.0634  -4.0602
    -4.0602  -4.0298  -3.9994  -3.9993  -3.9699  -3.9697  -3.9658  -3.9658
    -3.9636  -3.9578  -3.9255  -3.9253  -3.8652  -3.8651  -3.8329  -3.8064
    -3.7998  -3.7962  -3.7958  -3.7736  -3.7736  -3.7617  -3.7114  -3.7114
    -3.7054  -3.7053  -3.6200  -3.6198  -3.5978  -3.5976  -3.5631  -3.5599
    -3.5480  -3.5218  -3.5218  -3.4775  -3.4774  -3.4749  -3.4748  -3.4501
    -3.4500  -3.3695  -3.3694  -3.3676  -3.3541  -3.3382  -3.3356  -3.3227
    -3.3226  -3.3154  -3.3153  -3.2725  -3.2725  -3.2496  -3.2494  -3.2132
    -3.2131  -3.1866  -3.1865  -3.1656  -3.1655  -3.1194  -3.1192  -3.0867
    -3.0592  -3.0587  -3.0582  -3.0576  -3.0536  -3.0536  -3.0259  -3.0174
    -2.9783  -2.9782  -2.9571  -2.9336  -2.9306  -2.9306  -2.9240  -2.9237
    -2.9196  -2.9196  -2.8844  -2.8834  -2.8834  -2.8779  -2.8779  -2.8729
    -2.8178  -2.8118  -2.8079  -2.8077  -2.7856  -2.7855  -2.7803  -2.6917
    -2.6810  -2.6810  -2.6715  -2.6712  -2.6653  -2.6641  -2.6631  -2.6553
    -2.6553  -2.6446  -2.6372  -2.6341  -2.6339  -2.6295  -2.6196  -2.6141
    -2.6121  -2.5899  -2.5793  -2.5791  -2.5633  -2.5633  -2.5462  -2.5462
    -2.5375  -2.5374  -2.5168  -2.5041  -2.5041  -2.4987  -2.4986  -2.4648
    -2.4624  -2.4624  -2.4042  -2.4010  -2.3861  -2.3860  -2.3754  -2.3709
    -2.3477  -2.3476  -2.3435  -2.3308  -2.3306  -2.3191  -2.3188  -2.3022
    -2.3019  -2.2751  -2.2751  -2.2648  -2.2647  -2.2549  -2.2548  -2.2376
    -2.2247  -2.2040  -2.1350  -2.1337  -2.1143  -2.1142  -2.1024  -2.1023
    -2.0523  -2.0520  -2.0369  -2.0174  -2.0048  -2.0048  -1.9867  -1.9683
    -1.9682  -1.9551  -1.9482  -1.9161  -1.9158  -1.9144  -1.9075  -1.9075
    -1.8997  -1.8996  -1.8791  -1.8727  -1.8622  -1.8621  -1.8616  -1.8616
    -1.8605  -1.8602  -1.8465  -1.8264  -1.8264  -1.8230  -1.8176  -1.8047
    -1.8045  -1.8003  -1.8001  -1.7944  -1.7924  -1.7583  -1.7580  -1.7134
    -1.6943  -1.6940  -1.6484  -1.6483  -1.6482  -1.6375  -1.6372  -1.6236
    -1.6233  -1.6159  -1.6157  -1.6054  -1.6052  -1.5849  -1.5848  -1.5479
    -1.5478  -1.5304  -1.5081  -1.5080  -1.4686  -1.4685  -1.4181  -1.4180
    -1.3970  -1.3723  -1.3710  -1.3705  -1.3649  -1.3641  -1.3443  -1.3442
    -1.3433  -1.3431  -1.3413  -1.3409  -1.3403  -1.3392  -1.3377  -1.3109
    -1.3109  -1.2779  -1.2765  -1.2765  -1.2549  -1.2549  -1.2499  -1.2497
    -1.2467  -1.2362  -1.2085  -1.2083  -1.1840  -1.1828  -1.1822  -1.1624
    -1.1510  -1.1509  -1.1449  -1.1217  -1.1216  -1.1147  -1.1146  -1.0760
    -1.0758  -1.0641  -1.0640  -1.0631  -1.0630  -1.0368  -1.0367  -1.0226
    -1.0153  -1.0152  -1.0033  -1.0031  -1.0015  -1.0013  -0.9903  -0.9802
    -0.9792  -0.9726  -0.9726  -0.9657  -0.9616  -0.9615  -0.9453  -0.9037
    -0.9027  -0.9009  -0.8987  -0.8959  -0.8958  -0.8665  -0.8664  -0.8526
    -0.8351  -0.8348  -0.8265  -0.8264  -0.8182  -0.8110  -0.8098  -0.7733
    -0.7731  -0.7618  -0.7618  -0.7415  -0.7414  -0.7260  -0.7019  -0.6938
    -0.6761  -0.6759  -0.6383  -0.6381  -0.6352  -0.6350  -0.6341  -0.6281
    -0.6272  -0.6271  -0.6231  -0.6204  -0.5873  -0.5872  -0.5859  -0.5859
    -0.5844  -0.5841  -0.5704  -0.5702  -0.5419  -0.2796  -0.2737  -0.2278
    -0.2271  -0.1964  -0.1378   0.0148   0.0150   0.0456   0.3303   0.3304
     0.6710   0.6717   0.7149   0.7149   0.7648   0.7651   0.9244   0.9247
     1.0529   1.0540   1.1680   1.6634   1.7059   1.7091   1.7464   1.7467
     1.8838   1.8853   1.9400   1.9403   2.1226   2.1228   2.4080   2.4343
     2.4353   2.4557   2.8905   2.8918   2.9134   2.9151   2.9306   2.9308
     2.9964   2.9970   3.1549   3.2749   3.2756   3.4596   3.4703   3.5714
     3.6433   3.6435   3.9432   3.9437   4.0004   4.0016   4.0017   4.1484
     4.1489   4.1702   4.1710   4.4441   4.4460   4.4825   4.4825   4.5958
     4.6013   4.6634   4.6648   4.9451   5.0342   5.5457   5.5462   5.6248
     5.6263   5.7530   5.7534   5.7970   5.8252   5.8255   5.8419   5.8421
     5.9407   5.9542   6.0734   6.0993   6.2412   6.2420   6.2528   6.2534
     6.2587   6.2683   6.2998   6.3672   6.4313   6.4329   6.5212   6.5540

          k =-0.2500-0.2500 0.0833 (167653 PWs)   bands (ev):

   -19.1772  -6.9902  -6.7898  -6.2596  -6.2594  -5.8213  -5.4178  -5.3191
    -5.3190  -5.0974  -5.0973  -5.0004  -5.0002  -4.8669  -4.8592  -4.7498
    -4.6612  -4.6573  -4.6361  -4.6360  -4.4549  -4.4537  -4.4536  -4.4269
    -4.4229  -4.4223  -4.4187  -4.3652  -4.3650  -4.3624  -4.3623  -4.2987
    -4.2702  -4.2702  -4.2135  -4.2102  -4.2089  -4.1729  -4.1727  -4.1588
    -4.1544  -4.1356  -4.1356  -4.0981  -4.0659  -4.0657  -4.0634  -4.0602
    -4.0602  -4.0298  -3.9994  -3.9993  -3.9699  -3.9697  -3.9658  -3.9658
    -3.9636  -3.9577  -3.9255  -3.9253  -3.8652  -3.8651  -3.8329  -3.8064
    -3.7998  -3.7962  -3.7958  -3.7736  -3.7736  -3.7617  -3.7114  -3.7114
    -3.7054  -3.7053  -3.6200  -3.6198  -3.5978  -3.5976  -3.5631  -3.5599
    -3.5480  -3.5218  -3.5218  -3.4775  -3.4774  -3.4749  -3.4748  -3.4501
    -3.4500  -3.3695  -3.3694  -3.3676  -3.3541  -3.3382  -3.3356  -3.3227
    -3.3226  -3.3154  -3.3153  -3.2726  -3.2726  -3.2496  -3.2494  -3.2132
    -3.2131  -3.1866  -3.1865  -3.1656  -3.1655  -3.1194  -3.1192  -3.0867
    -3.0592  -3.0588  -3.0582  -3.0576  -3.0537  -3.0536  -3.0259  -3.0174
    -2.9783  -2.9783  -2.9571  -2.9336  -2.9306  -2.9306  -2.9240  -2.9237
    -2.9196  -2.9196  -2.8844  -2.8834  -2.8834  -2.8779  -2.8779  -2.8729
    -2.8178  -2.8118  -2.8078  -2.8077  -2.7856  -2.7855  -2.7803  -2.6917
    -2.6810  -2.6810  -2.6715  -2.6713  -2.6653  -2.6641  -2.6631  -2.6553
    -2.6553  -2.6446  -2.6372  -2.6341  -2.6339  -2.6295  -2.6196  -2.6141
    -2.6121  -2.5899  -2.5793  -2.5791  -2.5633  -2.5633  -2.5463  -2.5462
    -2.5375  -2.5374  -2.5168  -2.5041  -2.5041  -2.4987  -2.4986  -2.4648
    -2.4624  -2.4624  -2.4042  -2.4010  -2.3861  -2.3860  -2.3754  -2.3709
    -2.3478  -2.3476  -2.3435  -2.3308  -2.3306  -2.3191  -2.3188  -2.3022
    -2.3020  -2.2751  -2.2751  -2.2648  -2.2647  -2.2549  -2.2548  -2.2376
    -2.2247  -2.2040  -2.1350  -2.1337  -2.1143  -2.1142  -2.1024  -2.1023
    -2.0523  -2.0520  -2.0369  -2.0174  -2.0049  -2.0048  -1.9867  -1.9683
    -1.9682  -1.9551  -1.9482  -1.9161  -1.9158  -1.9144  -1.9075  -1.9075
    -1.8997  -1.8996  -1.8791  -1.8727  -1.8622  -1.8621  -1.8616  -1.8616
    -1.8605  -1.8602  -1.8464  -1.8264  -1.8264  -1.8230  -1.8176  -1.8047
    -1.8045  -1.8002  -1.8001  -1.7944  -1.7924  -1.7583  -1.7580  -1.7134
    -1.6943  -1.6940  -1.6484  -1.6483  -1.6482  -1.6375  -1.6372  -1.6236
    -1.6233  -1.6159  -1.6157  -1.6054  -1.6052  -1.5849  -1.5849  -1.5479
    -1.5478  -1.5304  -1.5081  -1.5080  -1.4686  -1.4684  -1.4181  -1.4180
    -1.3970  -1.3723  -1.3710  -1.3705  -1.3649  -1.3641  -1.3443  -1.3442
    -1.3433  -1.3431  -1.3413  -1.3409  -1.3403  -1.3391  -1.3377  -1.3109
    -1.3109  -1.2779  -1.2765  -1.2765  -1.2549  -1.2549  -1.2499  -1.2497
    -1.2467  -1.2362  -1.2085  -1.2083  -1.1840  -1.1828  -1.1822  -1.1624
    -1.1510  -1.1509  -1.1449  -1.1217  -1.1216  -1.1147  -1.1146  -1.0761
    -1.0758  -1.0641  -1.0640  -1.0631  -1.0630  -1.0368  -1.0367  -1.0226
    -1.0153  -1.0152  -1.0033  -1.0031  -1.0015  -1.0013  -0.9903  -0.9802
    -0.9792  -0.9727  -0.9726  -0.9657  -0.9616  -0.9615  -0.9453  -0.9037
    -0.9027  -0.9009  -0.8987  -0.8958  -0.8958  -0.8665  -0.8664  -0.8526
    -0.8351  -0.8348  -0.8265  -0.8265  -0.8182  -0.8110  -0.8098  -0.7733
    -0.7731  -0.7618  -0.7618  -0.7415  -0.7414  -0.7260  -0.7019  -0.6938
    -0.6761  -0.6759  -0.6383  -0.6381  -0.6352  -0.6349  -0.6341  -0.6281
    -0.6272  -0.6271  -0.6231  -0.6204  -0.5873  -0.5872  -0.5859  -0.5859
    -0.5844  -0.5841  -0.5704  -0.5702  -0.5420  -0.2796  -0.2737  -0.2278
    -0.2271  -0.1964  -0.1378   0.0148   0.0149   0.0456   0.3303   0.3304
     0.6710   0.6717   0.7149   0.7149   0.7648   0.7651   0.9244   0.9247
     1.0529   1.0540   1.1680   1.6634   1.7059   1.7091   1.7464   1.7467
     1.8838   1.8853   1.9400   1.9403   2.1226   2.1227   2.4080   2.4343
     2.4353   2.4557   2.8905   2.8918   2.9134   2.9151   2.9306   2.9308
     2.9964   2.9970   3.1549   3.2749   3.2756   3.4596   3.4703   3.5714
     3.6433   3.6435   3.9432   3.9437   4.0004   4.0016   4.0017   4.1484
     4.1489   4.1702   4.1708   4.4441   4.4460   4.4825   4.4825   4.5958
     4.6013   4.6634   4.6648   4.9447   5.0377   5.5457   5.5462   5.6246
     5.6263   5.7530   5.7534   5.8229   5.8252   5.8262   5.8419   5.8421
     5.9367   5.9542   5.9761   6.1548   6.2412   6.2420   6.2528   6.2534
     6.2587   6.2683   6.2738   6.3443   6.4270   6.4311   6.4849   6.5475

          k =-0.2500 0.2500-0.0833 (167653 PWs)   bands (ev):

   -19.1772  -6.9902  -6.7898  -6.2596  -6.2594  -5.8213  -5.4178  -5.3192
    -5.3189  -5.0974  -5.0973  -5.0005  -5.0001  -4.8669  -4.8592  -4.7498
    -4.6612  -4.6573  -4.6360  -4.6360  -4.4549  -4.4537  -4.4535  -4.4269
    -4.4228  -4.4223  -4.4187  -4.3652  -4.3649  -4.3624  -4.3623  -4.2987
    -4.2702  -4.2701  -4.2135  -4.2101  -4.2089  -4.1729  -4.1726  -4.1588
    -4.1544  -4.1356  -4.1356  -4.0981  -4.0659  -4.0657  -4.0634  -4.0602
    -4.0602  -4.0298  -3.9995  -3.9993  -3.9699  -3.9698  -3.9658  -3.9658
    -3.9636  -3.9577  -3.9256  -3.9252  -3.8653  -3.8650  -3.8329  -3.8064
    -3.7998  -3.7962  -3.7958  -3.7736  -3.7735  -3.7617  -3.7114  -3.7114
    -3.7054  -3.7053  -3.6201  -3.6198  -3.5978  -3.5975  -3.5631  -3.5599
    -3.5480  -3.5218  -3.5218  -3.4776  -3.4774  -3.4749  -3.4747  -3.4502
    -3.4499  -3.3695  -3.3694  -3.3676  -3.3541  -3.3382  -3.3356  -3.3227
    -3.3226  -3.3154  -3.3153  -3.2726  -3.2726  -3.2496  -3.2494  -3.2133
    -3.2130  -3.1866  -3.1865  -3.1656  -3.1655  -3.1194  -3.1193  -3.0867
    -3.0592  -3.0587  -3.0582  -3.0575  -3.0537  -3.0536  -3.0259  -3.0174
    -2.9783  -2.9783  -2.9571  -2.9336  -2.9306  -2.9305  -2.9239  -2.9237
    -2.9196  -2.9195  -2.8844  -2.8834  -2.8834  -2.8780  -2.8779  -2.8729
    -2.8178  -2.8118  -2.8079  -2.8077  -2.7856  -2.7855  -2.7803  -2.6917
    -2.6811  -2.6809  -2.6715  -2.6713  -2.6654  -2.6639  -2.6632  -2.6554
    -2.6553  -2.6446  -2.6372  -2.6342  -2.6339  -2.6295  -2.6196  -2.6141
    -2.6121  -2.5899  -2.5793  -2.5791  -2.5633  -2.5633  -2.5463  -2.5462
    -2.5375  -2.5374  -2.5168  -2.5041  -2.5041  -2.4988  -2.4986  -2.4648
    -2.4624  -2.4623  -2.4042  -2.4010  -2.3860  -2.3860  -2.3754  -2.3709
    -2.3478  -2.3476  -2.3435  -2.3308  -2.3306  -2.3192  -2.3187  -2.3023
    -2.3019  -2.2751  -2.2751  -2.2649  -2.2647  -2.2550  -2.2548  -2.2376
    -2.2247  -2.2040  -2.1350  -2.1337  -2.1143  -2.1142  -2.1024  -2.1023
    -2.0524  -2.0519  -2.0369  -2.0174  -2.0049  -2.0048  -1.9867  -1.9683
    -1.9682  -1.9551  -1.9482  -1.9162  -1.9157  -1.9144  -1.9075  -1.9074
    -1.8998  -1.8996  -1.8790  -1.8728  -1.8623  -1.8621  -1.8617  -1.8616
    -1.8606  -1.8601  -1.8464  -1.8265  -1.8264  -1.8230  -1.8176  -1.8047
    -1.8045  -1.8003  -1.8001  -1.7944  -1.7924  -1.7583  -1.7580  -1.7134
    -1.6942  -1.6940  -1.6484  -1.6483  -1.6482  -1.6375  -1.6372  -1.6237
    -1.6232  -1.6160  -1.6156  -1.6054  -1.6051  -1.5849  -1.5848  -1.5479
    -1.5477  -1.5304  -1.5081  -1.5079  -1.4686  -1.4684  -1.4181  -1.4180
    -1.3970  -1.3723  -1.3711  -1.3705  -1.3649  -1.3641  -1.3444  -1.3441
    -1.3433  -1.3430  -1.3413  -1.3408  -1.3404  -1.3392  -1.3377  -1.3109
    -1.3108  -1.2779  -1.2766  -1.2765  -1.2549  -1.2548  -1.2500  -1.2497
    -1.2467  -1.2362  -1.2085  -1.2082  -1.1839  -1.1829  -1.1822  -1.1624
    -1.1511  -1.1508  -1.1449  -1.1217  -1.1215  -1.1147  -1.1145  -1.0761
    -1.0758  -1.0641  -1.0639  -1.0632  -1.0630  -1.0369  -1.0367  -1.0226
    -1.0153  -1.0151  -1.0034  -1.0030  -1.0016  -1.0013  -0.9903  -0.9802
    -0.9792  -0.9727  -0.9726  -0.9657  -0.9616  -0.9615  -0.9453  -0.9037
    -0.9027  -0.9009  -0.8987  -0.8958  -0.8958  -0.8665  -0.8663  -0.8526
    -0.8352  -0.8347  -0.8265  -0.8264  -0.8182  -0.8110  -0.8098  -0.7733
    -0.7731  -0.7618  -0.7618  -0.7415  -0.7414  -0.7260  -0.7019  -0.6938
    -0.6761  -0.6758  -0.6382  -0.6381  -0.6352  -0.6349  -0.6341  -0.6281
    -0.6272  -0.6270  -0.6231  -0.6204  -0.5874  -0.5872  -0.5860  -0.5858
    -0.5845  -0.5840  -0.5704  -0.5702  -0.5420  -0.2796  -0.2737  -0.2281
    -0.2268  -0.1964  -0.1378   0.0147   0.0150   0.0456   0.3303   0.3304
     0.6707   0.6719   0.7148   0.7149   0.7646   0.7653   0.9244   0.9248
     1.0529   1.0540   1.1681   1.6634   1.7059   1.7091   1.7464   1.7467
     1.8832   1.8859   1.9399   1.9403   2.1226   2.1228   2.4080   2.4340
     2.4356   2.4557   2.8900   2.8923   2.9134   2.9151   2.9305   2.9309
     2.9964   2.9970   3.1549   3.2747   3.2758   3.4596   3.4703   3.5714
     3.6433   3.6436   3.9431   3.9438   4.0003   4.0016   4.0018   4.1483
     4.1491   4.1687   4.1724   4.4441   4.4460   4.4824   4.4827   4.5958
     4.6013   4.6629   4.6653   4.9421   5.0397   5.5454   5.5464   5.6222
     5.6290   5.7529   5.7535   5.8250   5.8254   5.8394   5.8418   5.8422
     5.9413   5.9542   6.0123   6.0644   6.2409   6.2424   6.2527   6.2534
     6.2587   6.2682   6.2802   6.3102   6.4297   6.4308   6.5066   6.5551

          k = 0.2500-0.2500-0.0833 (167653 PWs)   bands (ev):

   -19.1772  -6.9902  -6.7898  -6.2596  -6.2594  -5.8213  -5.4178  -5.3192
    -5.3189  -5.0974  -5.0973  -5.0005  -5.0001  -4.8669  -4.8592  -4.7498
    -4.6612  -4.6573  -4.6360  -4.6360  -4.4549  -4.4537  -4.4535  -4.4269
    -4.4228  -4.4223  -4.4187  -4.3652  -4.3649  -4.3624  -4.3623  -4.2987
    -4.2702  -4.2701  -4.2135  -4.2101  -4.2089  -4.1729  -4.1726  -4.1588
    -4.1544  -4.1356  -4.1356  -4.0981  -4.0659  -4.0657  -4.0634  -4.0602
    -4.0602  -4.0298  -3.9995  -3.9993  -3.9699  -3.9698  -3.9658  -3.9658
    -3.9636  -3.9577  -3.9256  -3.9252  -3.8653  -3.8650  -3.8329  -3.8064
    -3.7998  -3.7962  -3.7958  -3.7736  -3.7735  -3.7617  -3.7114  -3.7114
    -3.7054  -3.7053  -3.6201  -3.6198  -3.5978  -3.5975  -3.5631  -3.5599
    -3.5480  -3.5218  -3.5218  -3.4776  -3.4774  -3.4749  -3.4747  -3.4502
    -3.4499  -3.3695  -3.3694  -3.3676  -3.3541  -3.3382  -3.3356  -3.3227
    -3.3226  -3.3154  -3.3153  -3.2726  -3.2726  -3.2496  -3.2494  -3.2133
    -3.2130  -3.1866  -3.1865  -3.1656  -3.1655  -3.1194  -3.1193  -3.0867
    -3.0592  -3.0587  -3.0582  -3.0575  -3.0537  -3.0536  -3.0259  -3.0174
    -2.9783  -2.9783  -2.9571  -2.9336  -2.9306  -2.9305  -2.9239  -2.9237
    -2.9196  -2.9195  -2.8844  -2.8834  -2.8834  -2.8780  -2.8779  -2.8729
    -2.8178  -2.8118  -2.8079  -2.8077  -2.7856  -2.7855  -2.7803  -2.6917
    -2.6811  -2.6809  -2.6715  -2.6713  -2.6654  -2.6639  -2.6632  -2.6554
    -2.6553  -2.6446  -2.6372  -2.6342  -2.6339  -2.6295  -2.6196  -2.6141
    -2.6121  -2.5899  -2.5793  -2.5791  -2.5633  -2.5633  -2.5463  -2.5462
    -2.5375  -2.5374  -2.5168  -2.5041  -2.5041  -2.4988  -2.4986  -2.4648
    -2.4624  -2.4623  -2.4042  -2.4010  -2.3860  -2.3860  -2.3754  -2.3709
    -2.3478  -2.3476  -2.3435  -2.3308  -2.3306  -2.3192  -2.3187  -2.3023
    -2.3019  -2.2751  -2.2751  -2.2649  -2.2647  -2.2550  -2.2548  -2.2376
    -2.2247  -2.2040  -2.1350  -2.1337  -2.1143  -2.1142  -2.1024  -2.1023
    -2.0524  -2.0519  -2.0369  -2.0174  -2.0049  -2.0048  -1.9867  -1.9683
    -1.9682  -1.9551  -1.9482  -1.9162  -1.9157  -1.9144  -1.9075  -1.9074
    -1.8998  -1.8996  -1.8790  -1.8728  -1.8623  -1.8621  -1.8617  -1.8616
    -1.8606  -1.8601  -1.8464  -1.8265  -1.8264  -1.8230  -1.8176  -1.8047
    -1.8045  -1.8003  -1.8001  -1.7944  -1.7924  -1.7583  -1.7580  -1.7134
    -1.6942  -1.6940  -1.6484  -1.6483  -1.6482  -1.6375  -1.6372  -1.6237
    -1.6232  -1.6160  -1.6156  -1.6054  -1.6051  -1.5849  -1.5848  -1.5479
    -1.5477  -1.5304  -1.5081  -1.5079  -1.4686  -1.4684  -1.4181  -1.4180
    -1.3970  -1.3723  -1.3711  -1.3705  -1.3649  -1.3641  -1.3444  -1.3441
    -1.3433  -1.3430  -1.3413  -1.3408  -1.3404  -1.3392  -1.3377  -1.3109
    -1.3108  -1.2779  -1.2766  -1.2765  -1.2549  -1.2548  -1.2500  -1.2497
    -1.2467  -1.2362  -1.2085  -1.2082  -1.1839  -1.1829  -1.1822  -1.1624
    -1.1511  -1.1508  -1.1449  -1.1217  -1.1215  -1.1147  -1.1145  -1.0761
    -1.0758  -1.0641  -1.0639  -1.0632  -1.0630  -1.0369  -1.0367  -1.0226
    -1.0153  -1.0151  -1.0034  -1.0030  -1.0016  -1.0013  -0.9903  -0.9802
    -0.9792  -0.9727  -0.9726  -0.9657  -0.9616  -0.9615  -0.9453  -0.9037
    -0.9027  -0.9009  -0.8987  -0.8958  -0.8958  -0.8665  -0.8663  -0.8526
    -0.8352  -0.8347  -0.8265  -0.8264  -0.8182  -0.8110  -0.8098  -0.7733
    -0.7731  -0.7618  -0.7618  -0.7415  -0.7414  -0.7260  -0.7019  -0.6938
    -0.6761  -0.6758  -0.6382  -0.6381  -0.6352  -0.6349  -0.6341  -0.6281
    -0.6272  -0.6270  -0.6231  -0.6204  -0.5874  -0.5872  -0.5860  -0.5858
    -0.5845  -0.5840  -0.5704  -0.5702  -0.5420  -0.2796  -0.2737  -0.2281
    -0.2268  -0.1964  -0.1378   0.0147   0.0150   0.0456   0.3303   0.3304
     0.6707   0.6719   0.7148   0.7149   0.7646   0.7653   0.9244   0.9248
     1.0529   1.0540   1.1681   1.6634   1.7059   1.7091   1.7464   1.7467
     1.8832   1.8859   1.9399   1.9403   2.1226   2.1228   2.4080   2.4340
     2.4356   2.4557   2.8900   2.8923   2.9134   2.9151   2.9305   2.9309
     2.9964   2.9970   3.1549   3.2747   3.2758   3.4596   3.4703   3.5714
     3.6433   3.6436   3.9431   3.9438   4.0003   4.0016   4.0018   4.1483
     4.1491   4.1687   4.1724   4.4441   4.4460   4.4824   4.4827   4.5958
     4.6013   4.6629   4.6653   4.9421   5.0397   5.5454   5.5464   5.6222
     5.6290   5.7529   5.7535   5.8250   5.8254   5.8393   5.8418   5.8422
     5.9413   5.9542   6.0128   6.0640   6.2409   6.2424   6.2527   6.2534
     6.2587   6.2682   6.2801   6.3102   6.4297   6.4308   6.5065   6.5554

          k =-0.2500 0.2500 0.2500 (167588 PWs)   bands (ev):

   -19.1772  -6.9902  -6.7898  -6.2596  -6.2594  -5.8213  -5.4178  -5.3192
    -5.3189  -5.0974  -5.0973  -5.0005  -5.0001  -4.8669  -4.8592  -4.7498
    -4.6612  -4.6573  -4.6360  -4.6360  -4.4549  -4.4537  -4.4535  -4.4269
    -4.4228  -4.4223  -4.4187  -4.3652  -4.3649  -4.3624  -4.3623  -4.2987
    -4.2702  -4.2701  -4.2135  -4.2101  -4.2089  -4.1729  -4.1726  -4.1588
    -4.1544  -4.1356  -4.1356  -4.0981  -4.0659  -4.0657  -4.0634  -4.0602
    -4.0602  -4.0298  -3.9995  -3.9993  -3.9699  -3.9698  -3.9658  -3.9658
    -3.9636  -3.9578  -3.9256  -3.9252  -3.8653  -3.8650  -3.8329  -3.8064
    -3.7998  -3.7962  -3.7957  -3.7736  -3.7735  -3.7617  -3.7114  -3.7114
    -3.7054  -3.7053  -3.6201  -3.6198  -3.5978  -3.5975  -3.5631  -3.5599
    -3.5480  -3.5218  -3.5218  -3.4776  -3.4774  -3.4749  -3.4747  -3.4502
    -3.4499  -3.3695  -3.3694  -3.3676  -3.3541  -3.3382  -3.3356  -3.3227
    -3.3226  -3.3154  -3.3153  -3.2725  -3.2725  -3.2496  -3.2494  -3.2133
    -3.2130  -3.1866  -3.1865  -3.1656  -3.1655  -3.1194  -3.1192  -3.0867
    -3.0592  -3.0587  -3.0582  -3.0575  -3.0537  -3.0536  -3.0259  -3.0174
    -2.9783  -2.9782  -2.9571  -2.9336  -2.9306  -2.9305  -2.9239  -2.9237
    -2.9196  -2.9196  -2.8844  -2.8834  -2.8834  -2.8779  -2.8779  -2.8729
    -2.8178  -2.8118  -2.8079  -2.8077  -2.7856  -2.7855  -2.7803  -2.6917
    -2.6811  -2.6809  -2.6715  -2.6712  -2.6654  -2.6639  -2.6632  -2.6554
    -2.6553  -2.6446  -2.6372  -2.6342  -2.6339  -2.6295  -2.6196  -2.6141
    -2.6121  -2.5899  -2.5793  -2.5791  -2.5633  -2.5633  -2.5463  -2.5462
    -2.5375  -2.5374  -2.5168  -2.5041  -2.5041  -2.4988  -2.4986  -2.4648
    -2.4624  -2.4623  -2.4042  -2.4010  -2.3860  -2.3860  -2.3754  -2.3709
    -2.3478  -2.3476  -2.3435  -2.3308  -2.3306  -2.3192  -2.3187  -2.3023
    -2.3019  -2.2751  -2.2751  -2.2649  -2.2647  -2.2550  -2.2548  -2.2376
    -2.2247  -2.2040  -2.1350  -2.1337  -2.1143  -2.1142  -2.1024  -2.1023
    -2.0524  -2.0519  -2.0369  -2.0174  -2.0049  -2.0048  -1.9867  -1.9683
    -1.9682  -1.9551  -1.9482  -1.9162  -1.9157  -1.9144  -1.9075  -1.9074
    -1.8998  -1.8995  -1.8790  -1.8728  -1.8623  -1.8621  -1.8617  -1.8616
    -1.8606  -1.8601  -1.8465  -1.8265  -1.8264  -1.8230  -1.8176  -1.8047
    -1.8045  -1.8003  -1.8001  -1.7944  -1.7924  -1.7583  -1.7579  -1.7134
    -1.6942  -1.6940  -1.6484  -1.6483  -1.6482  -1.6375  -1.6372  -1.6237
    -1.6232  -1.6160  -1.6156  -1.6054  -1.6051  -1.5849  -1.5848  -1.5479
    -1.5477  -1.5304  -1.5081  -1.5079  -1.4686  -1.4684  -1.4181  -1.4180
    -1.3970  -1.3723  -1.3711  -1.3705  -1.3649  -1.3641  -1.3444  -1.3441
    -1.3433  -1.3430  -1.3413  -1.3408  -1.3403  -1.3392  -1.3377  -1.3109
    -1.3108  -1.2779  -1.2766  -1.2765  -1.2549  -1.2548  -1.2499  -1.2497
    -1.2466  -1.2362  -1.2085  -1.2082  -1.1839  -1.1829  -1.1822  -1.1624
    -1.1511  -1.1508  -1.1448  -1.1217  -1.1215  -1.1147  -1.1145  -1.0761
    -1.0758  -1.0641  -1.0639  -1.0632  -1.0629  -1.0369  -1.0367  -1.0226
    -1.0153  -1.0151  -1.0034  -1.0030  -1.0016  -1.0013  -0.9903  -0.9802
    -0.9792  -0.9727  -0.9726  -0.9657  -0.9616  -0.9615  -0.9453  -0.9037
    -0.9027  -0.9009  -0.8987  -0.8959  -0.8958  -0.8665  -0.8663  -0.8526
    -0.8352  -0.8347  -0.8265  -0.8264  -0.8182  -0.8110  -0.8098  -0.7733
    -0.7731  -0.7618  -0.7618  -0.7415  -0.7414  -0.7260  -0.7019  -0.6938
    -0.6761  -0.6758  -0.6382  -0.6381  -0.6352  -0.6349  -0.6341  -0.6281
    -0.6272  -0.6270  -0.6231  -0.6204  -0.5874  -0.5872  -0.5860  -0.5858
    -0.5845  -0.5840  -0.5704  -0.5702  -0.5419  -0.2796  -0.2737  -0.2281
    -0.2268  -0.1964  -0.1378   0.0147   0.0150   0.0456   0.3303   0.3304
     0.6707   0.6719   0.7148   0.7149   0.7646   0.7653   0.9244   0.9248
     1.0529   1.0540   1.1681   1.6634   1.7059   1.7091   1.7464   1.7467
     1.8832   1.8859   1.9399   1.9403   2.1226   2.1228   2.4080   2.4340
     2.4356   2.4557   2.8900   2.8923   2.9134   2.9151   2.9305   2.9309
     2.9964   2.9970   3.1549   3.2747   3.2758   3.4596   3.4703   3.5714
     3.6433   3.6436   3.9431   3.9438   4.0003   4.0016   4.0018   4.1483
     4.1491   4.1687   4.1725   4.4441   4.4460   4.4824   4.4827   4.5958
     4.6013   4.6629   4.6653   4.9426   5.0360   5.5454   5.5464   5.6225
     5.6287   5.7529   5.7535   5.8222   5.8250   5.8258   5.8418   5.8422
     5.9423   5.9542   6.0212   6.1024   6.2409   6.2424   6.2527   6.2534
     6.2587   6.2682   6.3024   6.3879   6.4267   6.4350   6.4901   6.5543

     the Fermi energy is     0.9963 ev

!    total energy              =   -7379.97831899 Ry
     Harris-Foulkes estimate   =   -7379.97831900 Ry
     estimated scf accuracy    <          7.2E-09 Ry

     The total energy is the sum of the following terms:

     one-electron contribution =  -48146.03472107 Ry
     hartree contribution      =   24623.91074522 Ry
     xc contribution           =   -3556.23794332 Ry
     ewald contribution        =   19698.38256380 Ry
     smearing contrib. (-TS)   =       0.00103637 Ry

     convergence has been achieved in  27 iterations

     Writing output data file 7986334.save

     init_run     :    129.18s CPU    133.37s WALL (       1 calls)
     electrons    :   8573.38s CPU   8842.44s WALL (       1 calls)

     Called by init_run:
     wfcinit      :     96.41s CPU    100.31s WALL (       1 calls)
     potinit      :      3.68s CPU      3.74s WALL (       1 calls)

     Called by electrons:
     c_bands      :   7184.74s CPU   7401.94s WALL (      28 calls)
     sum_band     :    967.81s CPU   1014.47s WALL (      28 calls)
     v_of_rho     :     17.59s CPU     18.95s WALL (      28 calls)
     newd         :    410.79s CPU    414.05s WALL (      28 calls)
     mix_rho      :      3.26s CPU      3.60s WALL (      28 calls)

     Called by c_bands:
     init_us_2    :      8.12s CPU      8.35s WALL (     342 calls)
     cegterg      :   7046.58s CPU   7262.81s WALL (     168 calls)

     Called by *egterg:
     h_psi        :   2896.71s CPU   3082.95s WALL (     979 calls)
     s_psi        :    357.24s CPU    358.94s WALL (     979 calls)
     g_psi        :      4.71s CPU      4.69s WALL (     805 calls)
     cdiaghg      :   1764.72s CPU   1769.76s WALL (     967 calls)

     Called by h_psi:
     add_vuspsi   :    358.58s CPU    360.34s WALL (     979 calls)

     General routines
     calbec       :    742.42s CPU    744.69s WALL (    1147 calls)
     fft          :    170.82s CPU    173.38s WALL (     448 calls)
     ffts         :      1.93s CPU      2.08s WALL (      56 calls)
     fftw         :   2267.73s CPU   2482.63s WALL (  457852 calls)
     interpolate  :      4.64s CPU      5.13s WALL (      56 calls)
     davcio       :      0.00s CPU      0.10s WALL (       6 calls)

     Parallel routines
     fft_scatter  :   1893.26s CPU   2076.63s WALL (  458356 calls)

     PWSCF        :     2h25m CPU        2h29m WALL


   This run was terminated on:  18: 1: 7   7Aug2015            

=------------------------------------------------------------------------------=
   JOB DONE.
=------------------------------------------------------------------------------=
