Setting SGE environment for SCC

     Program PWSCF v.5.1.2 starts on  9Aug2015 at  2:58:59 

     This program is part of the open-source Quantum ESPRESSO suite
     for quantum simulation of materials; please cite
         "P. Giannozzi et al., J. Phys.:Condens. Matter 21 395502 (2009);
          URL http://www.quantum-espresso.org", 
     in publications or presentations arising from this work. More details at
     http://www.quantum-espresso.org/quote

     Parallel version (MPI), running on    32 processors
     R & G space division:  proc/nbgrp/npool/nimage =      32
     Reading input from top.O1.Au62.d.3.4.phi.45.psi.180.in
Warning: card &IONS ignored
Warning: card / ignored
Warning: card &CELL ignored
Warning: card / ignored

     Current dimensions of program PWSCF are:
     Max number of different atomic species (ntypx) = 10
     Max number of k-points (npk) =  40000
     Max angular momentum in pseudopotentials (lmaxx) =  3

     Subspace diagonalization in iterative solution of the eigenvalue problem:
     a serial algorithm will be used


     Parallelization info
     --------------------
     sticks:   dense  smooth     PW     G-vecs:    dense   smooth      PW
     Min         578     289     74               118518    41891    5486
     Max         579     290     75               118533    41932    5497
     Sum       18505    9265   2385              3792731  1341081  175711


     Title: 
     top.O1.Au62.d.3.4.phi.45.psi.180                                           


     bravais-lattice index     =            8
     lattice parameter (alat)  =      24.1233  a.u.
     unit-cell volume          =   28076.2361 (a.u.)^3
     number of atoms/cell      =           75
     number of atomic types    =            3
     number of electrons       =       800.00
     number of Kohn-Sham states=          480
     kinetic-energy cutoff     =      50.0000  Ry
     charge density cutoff     =     400.0000  Ry
     convergence threshold     =      1.0E-08
     mixing beta               =       0.7000
     number of iterations used =            8  plain     mixing
     Exchange-correlation      =  SLA  PW   PBE  PBE ( 1  4  3  4 0 0)

     celldm(1)=  24.123277  celldm(2)=   1.000000  celldm(3)=   2.000000
     celldm(4)=   0.000000  celldm(5)=   0.000000  celldm(6)=   0.000000

     crystal axes: (cart. coord. in units of alat)
               a(1) = (   1.000000   0.000000   0.000000 )  
               a(2) = (   0.000000   1.000000   0.000000 )  
               a(3) = (   0.000000   0.000000   2.000000 )  

     reciprocal axes: (cart. coord. in units 2 pi/alat)
               b(1) = (  1.000000  0.000000  0.000000 )  
               b(2) = (  0.000000  1.000000  0.000000 )  
               b(3) = (  0.000000  0.000000  0.500000 )  


     PseudoPot. # 1 for Au read from file:
     /home/scc/andrejb/qe/pseudo/Au.pbe-nd-van.UPF
     MD5 check sum: 458681b50f36d87ef23c61b04bba420a
     Pseudo is Ultrasoft + core correction, Zval = 11.0
     Generated by new atomic code, or converted to UPF format
     Using radial grid of  985 points,  3 beta functions with: 
                l(1) =   1
                l(2) =   2
                l(3) =   2
     Q(r) pseudized with  8 coefficients,  rinner =    1.100   1.100   1.100
                                                       1.100   1.100

     PseudoPot. # 2 for H  read from file:
     /home/scc/andrejb/qe/pseudo/H.pbe-van_ak.UPF
     MD5 check sum: 403db7282739603aa925980fa9b8608d
     Pseudo is Ultrasoft, Zval =  1.0
     Generated by new atomic code, or converted to UPF format
     Using radial grid of  615 points,  1 beta functions with: 
                l(1) =   0
     Q(r) pseudized with  8 coefficients,  rinner =    0.800

     PseudoPot. # 3 for O  read from file:
     /home/scc/andrejb/qe/pseudo/O.pbe-van_ak.UPF
     MD5 check sum: 4b8c549914a63cae506c6ff22b5af4fe
     Pseudo is Ultrasoft, Zval =  6.0
     Generated by new atomic code, or converted to UPF format
     Using radial grid of  737 points,  4 beta functions with: 
                l(1) =   0
                l(2) =   0
                l(3) =   1
                l(4) =   1
     Q(r) pseudized with  8 coefficients,  rinner =    0.800   0.800   0.800


     atomic species   valence    mass     pseudopotential
        Au            11.00   196.96657     Au( 1.00)
        H              1.00     1.01000     H ( 1.00)
        O              6.00    16.00000     O ( 1.00)

     No symmetry found



   Cartesian axes

     site n.     atom                  positions (alat units)
         1           O   tau(   1) = (   0.4998324   0.3332216   0.9693358  )
         2           H   tau(   2) = (   0.4942419   0.3942089   0.9238419  )
         3           H   tau(   3) = (   0.5052408   0.2740707   0.9214781  )
         4           Au  tau(   4) = (   0.0000000   0.0000000   0.0000000  )
         5           Au  tau(   5) = (   0.3332217   0.0000000   0.0000000  )
         6           Au  tau(   6) = (   0.6664434   0.0000000   0.0000000  )
         7           Au  tau(   7) = (   0.1666109   0.1666109   0.0000000  )
         8           Au  tau(   8) = (   0.4998326   0.1666109   0.0000000  )
         9           Au  tau(   9) = (   0.8330542   0.1666109   0.0000000  )
        10           Au  tau(  10) = (   0.0000000   0.3332217   0.0000000  )
        11           Au  tau(  11) = (   0.3332217   0.3332217   0.0000000  )
        12           Au  tau(  12) = (   0.6664434   0.3332217   0.0000000  )
        13           Au  tau(  13) = (   0.1666109   0.4998326   0.0000000  )
        14           Au  tau(  14) = (   0.4998326   0.4998326   0.0000000  )
        15           Au  tau(  15) = (   0.8330542   0.4998326   0.0000000  )
        16           Au  tau(  16) = (   0.0000000   0.6664434   0.0000000  )
        17           Au  tau(  17) = (   0.3332217   0.6664434   0.0000000  )
        18           Au  tau(  18) = (   0.6664434   0.6664434   0.0000000  )
        19           Au  tau(  19) = (   0.1666109   0.8330542   0.0000000  )
        20           Au  tau(  20) = (   0.4998326   0.8330542   0.0000000  )
        21           Au  tau(  21) = (   0.8330542   0.8330542   0.0000000  )
        22           Au  tau(  22) = (   0.1666109   0.0000000   0.1666109  )
        23           Au  tau(  23) = (   0.4998326   0.0000000   0.1666109  )
        24           Au  tau(  24) = (   0.8330542   0.0000000   0.1666109  )
        25           Au  tau(  25) = (   0.0000000   0.1666109   0.1666109  )
        26           Au  tau(  26) = (   0.3332217   0.1666109   0.1666109  )
        27           Au  tau(  27) = (   0.6664434   0.1666109   0.1666109  )
        28           Au  tau(  28) = (   0.1666109   0.3332217   0.1666109  )
        29           Au  tau(  29) = (   0.4998326   0.3332217   0.1666109  )
        30           Au  tau(  30) = (   0.8330542   0.3332217   0.1666109  )
        31           Au  tau(  31) = (   0.0000000   0.4998326   0.1666109  )
        32           Au  tau(  32) = (   0.3332217   0.4998326   0.1666109  )
        33           Au  tau(  33) = (   0.6664434   0.4998326   0.1666109  )
        34           Au  tau(  34) = (   0.1666109   0.6664434   0.1666109  )
        35           Au  tau(  35) = (   0.4998326   0.6664434   0.1666109  )
        36           Au  tau(  36) = (   0.8330542   0.6664434   0.1666109  )
        37           Au  tau(  37) = (   0.0000000   0.8330542   0.1666109  )
        38           Au  tau(  38) = (   0.3332217   0.8330542   0.1666109  )
        39           Au  tau(  39) = (   0.6664434   0.8330542   0.1666109  )
        40           Au  tau(  40) = (  -0.0000182  -0.0000182   0.3335478  )
        41           Au  tau(  41) = (   0.3332215  -0.0000181   0.3335473  )
        42           Au  tau(  42) = (   0.6664447  -0.0000183   0.3335481  )
        43           Au  tau(  43) = (  -0.0000181   0.3332215   0.3335473  )
        44           Au  tau(  44) = (   0.3332215   0.3332215   0.3335468  )
        45           Au  tau(  45) = (   0.6664445   0.3332215   0.3335477  )
        46           Au  tau(  46) = (  -0.0000183   0.6664447   0.3335481  )
        47           Au  tau(  47) = (   0.3332215   0.6664445   0.3335477  )
        48           Au  tau(  48) = (   0.6664446   0.6664446   0.3335486  )
        49           Au  tau(  49) = (   0.1666097   0.1666097   0.3335483  )
        50           Au  tau(  50) = (   0.4998320   0.1666098   0.3335477  )
        51           Au  tau(  51) = (   0.8330732   0.1666096   0.3335480  )
        52           Au  tau(  52) = (   0.1666098   0.4998320   0.3335477  )
        53           Au  tau(  53) = (   0.4998322   0.4998322   0.3335470  )
        54           Au  tau(  54) = (   0.8330731   0.4998322   0.3335474  )
        55           Au  tau(  55) = (   0.1666096   0.8330732   0.3335480  )
        56           Au  tau(  56) = (   0.4998322   0.8330731   0.3335474  )
        57           Au  tau(  57) = (   0.8330731   0.8330731   0.3335478  )
        58           Au  tau(  58) = (   0.1666104  -0.0000111   0.4993095  )
        59           Au  tau(  59) = (   0.4998323  -0.0000112   0.4993099  )
        60           Au  tau(  60) = (   0.8330660  -0.0000111   0.4993009  )
        61           Au  tau(  61) = (  -0.0000111   0.1666104   0.4993095  )
        62           Au  tau(  62) = (   0.3332213   0.1666106   0.4993185  )
        63           Au  tau(  63) = (   0.6664437   0.1666106   0.4993187  )
        64           Au  tau(  64) = (   0.1666106   0.3332213   0.4993185  )
        65           Au  tau(  65) = (   0.4998324   0.3332216   0.4993185  )
        66           Au  tau(  66) = (   0.8330658   0.3332215   0.4993102  )
        67           Au  tau(  67) = (  -0.0000112   0.4998323   0.4993099  )
        68           Au  tau(  68) = (   0.3332216   0.4998324   0.4993185  )
        69           Au  tau(  69) = (   0.6664437   0.4998325   0.4993187  )
        70           Au  tau(  70) = (   0.1666106   0.6664437   0.4993187  )
        71           Au  tau(  71) = (   0.4998325   0.6664437   0.4993187  )
        72           Au  tau(  72) = (   0.8330658   0.6664438   0.4993102  )
        73           Au  tau(  73) = (  -0.0000111   0.8330660   0.4993009  )
        74           Au  tau(  74) = (   0.3332215   0.8330658   0.4993102  )
        75           Au  tau(  75) = (   0.6664438   0.8330658   0.4993102  )

     number of k points=     6  Marzari-Vanderbilt smearing, width (Ry)=  0.0200
                       cart. coord. in units 2pi/alat
        k(    1) = (   0.2500000   0.2500000   0.0833333), wk =   0.3333333
        k(    2) = (   0.2500000   0.2500000  -0.2500000), wk =   0.3333333
        k(    3) = (  -0.2500000  -0.2500000   0.0833333), wk =   0.3333333
        k(    4) = (  -0.2500000   0.2500000  -0.0833333), wk =   0.3333333
        k(    5) = (   0.2500000  -0.2500000  -0.0833333), wk =   0.3333333
        k(    6) = (  -0.2500000   0.2500000   0.2500000), wk =   0.3333333

     Dense  grid:  3792731 G-vectors     FFT dimensions: ( 160, 160, 320)

     Smooth grid:  1341081 G-vectors     FFT dimensions: ( 120, 120, 225)

     Largest allocated arrays     est. size (Mb)     dimensions
        Kohn-Sham Wavefunctions        38.58 Mb     (    5267,  480)
        NL pseudopotentials            76.03 Mb     (    5267,  946)
        Each V/rho on FFT grid          3.91 Mb     (  256000)
        Each G-vector array             0.90 Mb     (  118520)
        G-vector shells                 0.08 Mb     (   10286)
     Largest temporary arrays     est. size (Mb)     dimensions
        Auxiliary wavefunctions       154.31 Mb     (    5267, 1920)
        Each subspace H/S matrix       56.25 Mb     (    1920, 1920)
        Each <psi_i|beta_j> matrix      6.93 Mb     (     946,  480)
        Arrays for rho mixing          31.25 Mb     (  256000,    8)

     Initial potential from superposition of free atoms
     Check: negative starting charge=   -1.944783

     starting charge  799.16392, renormalised to  800.00000

     negative rho (up, down):  1.947E+00 0.000E+00
     Starting wfc are  654 randomized atomic wfcs

     total cpu time spent up to now is      118.7 secs

     Self-consistent Calculation

     iteration #  1     ecut=    50.00 Ry     beta=0.70
     Davidson diagonalization with overlap
     ethr =  1.00E-02,  avg # of iterations =  3.0

     Threshold (ethr) on eigenvalues was too large:
     Diagonalizing with lowered threshold

     Davidson diagonalization with overlap
     ethr =  5.01E-04,  avg # of iterations =  2.0

     negative rho (up, down):  1.932E+00 0.000E+00

     total cpu time spent up to now is      565.0 secs

     total energy              =   -7377.39563088 Ry
     Harris-Foulkes estimate   =   -7380.96393578 Ry
     estimated scf accuracy    <       4.52915668 Ry

     iteration #  2     ecut=    50.00 Ry     beta=0.70
     Davidson diagonalization with overlap
     ethr =  5.66E-04,  avg # of iterations = 11.2

     negative rho (up, down):  1.930E+00 0.000E+00

     total cpu time spent up to now is     1298.2 secs

     total energy              =   -7368.70062220 Ry
     Harris-Foulkes estimate   =   -7388.00425058 Ry
     estimated scf accuracy    <      99.49108198 Ry

     iteration #  3     ecut=    50.00 Ry     beta=0.70
     Davidson diagonalization with overlap
     ethr =  5.66E-04,  avg # of iterations =  6.0

     negative rho (up, down):  1.947E+00 0.000E+00

     total cpu time spent up to now is     1768.2 secs

     total energy              =   -7378.46567348 Ry
     Harris-Foulkes estimate   =   -7380.76642929 Ry
     estimated scf accuracy    <       9.36988209 Ry

     iteration #  4     ecut=    50.00 Ry     beta=0.70
     Davidson diagonalization with overlap
     ethr =  5.66E-04,  avg # of iterations =  6.5

     negative rho (up, down):  1.950E+00 0.000E+00

     total cpu time spent up to now is     2048.7 secs

     total energy              =   -7379.17132275 Ry
     Harris-Foulkes estimate   =   -7380.55495818 Ry
     estimated scf accuracy    <       8.23384107 Ry

     iteration #  5     ecut=    50.00 Ry     beta=0.70
     Davidson diagonalization with overlap
     ethr =  5.66E-04,  avg # of iterations =  5.8

     negative rho (up, down):  1.961E+00 0.000E+00

     total cpu time spent up to now is     2314.8 secs

     total energy              =   -7379.72622832 Ry
     Harris-Foulkes estimate   =   -7380.35556962 Ry
     estimated scf accuracy    <       4.93257325 Ry

     iteration #  6     ecut=    50.00 Ry     beta=0.70
     Davidson diagonalization with overlap
     ethr =  5.66E-04,  avg # of iterations =  2.0

     negative rho (up, down):  1.966E+00 0.000E+00

     total cpu time spent up to now is     2527.2 secs

     total energy              =   -7379.98338877 Ry
     Harris-Foulkes estimate   =   -7380.01505520 Ry
     estimated scf accuracy    <       0.09961907 Ry

     iteration #  7     ecut=    50.00 Ry     beta=0.70
     Davidson diagonalization with overlap
     ethr =  1.25E-05,  avg # of iterations = 12.5

     negative rho (up, down):  1.967E+00 0.000E+00

     total cpu time spent up to now is     2977.7 secs

     total energy              =   -7379.97372691 Ry
     Harris-Foulkes estimate   =   -7380.01319259 Ry
     estimated scf accuracy    <       0.20801112 Ry

     iteration #  8     ecut=    50.00 Ry     beta=0.70
     Davidson diagonalization with overlap
     ethr =  1.25E-05,  avg # of iterations =  3.0

     negative rho (up, down):  1.968E+00 0.000E+00

     total cpu time spent up to now is     3209.4 secs

     total energy              =   -7379.98093329 Ry
     Harris-Foulkes estimate   =   -7379.99715309 Ry
     estimated scf accuracy    <       0.06073029 Ry

     iteration #  9     ecut=    50.00 Ry     beta=0.70
     Davidson diagonalization with overlap
     ethr =  7.59E-06,  avg # of iterations = 12.8

     negative rho (up, down):  1.969E+00 0.000E+00

     total cpu time spent up to now is     3545.3 secs

     total energy              =   -7379.97838612 Ry
     Harris-Foulkes estimate   =   -7379.98788551 Ry
     estimated scf accuracy    <       0.03139729 Ry

     iteration # 10     ecut=    50.00 Ry     beta=0.70
     Davidson diagonalization with overlap
     ethr =  3.92E-06,  avg # of iterations = 14.2

     negative rho (up, down):  1.971E+00 0.000E+00

     total cpu time spent up to now is     3894.1 secs

     total energy              =   -7379.97822237 Ry
     Harris-Foulkes estimate   =   -7379.98312167 Ry
     estimated scf accuracy    <       0.01453985 Ry

     iteration # 11     ecut=    50.00 Ry     beta=0.70
     Davidson diagonalization with overlap
     ethr =  1.82E-06,  avg # of iterations = 10.0

     negative rho (up, down):  1.971E+00 0.000E+00

     total cpu time spent up to now is     4200.5 secs

     total energy              =   -7379.97866562 Ry
     Harris-Foulkes estimate   =   -7379.98009900 Ry
     estimated scf accuracy    <       0.00520973 Ry

     iteration # 12     ecut=    50.00 Ry     beta=0.70
     Davidson diagonalization with overlap
     ethr =  6.51E-07,  avg # of iterations =  3.2

     negative rho (up, down):  1.972E+00 0.000E+00

     total cpu time spent up to now is     4421.2 secs

     total energy              =   -7379.97807341 Ry
     Harris-Foulkes estimate   =   -7379.97913906 Ry
     estimated scf accuracy    <       0.00148412 Ry

     iteration # 13     ecut=    50.00 Ry     beta=0.70
     Davidson diagonalization with overlap
     ethr =  1.86E-07,  avg # of iterations =  8.0

     negative rho (up, down):  1.971E+00 0.000E+00

     total cpu time spent up to now is     4711.5 secs

     total energy              =   -7379.97806227 Ry
     Harris-Foulkes estimate   =   -7379.97852704 Ry
     estimated scf accuracy    <       0.00172479 Ry

     iteration # 14     ecut=    50.00 Ry     beta=0.70
     Davidson diagonalization with overlap
     ethr =  1.86E-07,  avg # of iterations =  2.0

     negative rho (up, down):  1.971E+00 0.000E+00

     total cpu time spent up to now is     4923.8 secs

     total energy              =   -7379.97824229 Ry
     Harris-Foulkes estimate   =   -7379.97841271 Ry
     estimated scf accuracy    <       0.00079287 Ry

     iteration # 15     ecut=    50.00 Ry     beta=0.70
     Davidson diagonalization with overlap
     ethr =  9.91E-08,  avg # of iterations =  2.0

     negative rho (up, down):  1.971E+00 0.000E+00

     total cpu time spent up to now is     5129.7 secs

     total energy              =   -7379.97827465 Ry
     Harris-Foulkes estimate   =   -7379.97839122 Ry
     estimated scf accuracy    <       0.00048182 Ry

     iteration # 16     ecut=    50.00 Ry     beta=0.70
     Davidson diagonalization with overlap
     ethr =  6.02E-08,  avg # of iterations =  2.0

     negative rho (up, down):  1.971E+00 0.000E+00

     total cpu time spent up to now is     5339.2 secs

     total energy              =   -7379.97829203 Ry
     Harris-Foulkes estimate   =   -7379.97838761 Ry
     estimated scf accuracy    <       0.00075682 Ry

     iteration # 17     ecut=    50.00 Ry     beta=0.70
     Davidson diagonalization with overlap
     ethr =  6.02E-08,  avg # of iterations =  1.0

     negative rho (up, down):  1.971E+00 0.000E+00

     total cpu time spent up to now is     5534.6 secs

     total energy              =   -7379.97833782 Ry
     Harris-Foulkes estimate   =   -7379.97834757 Ry
     estimated scf accuracy    <       0.00003303 Ry

     iteration # 18     ecut=    50.00 Ry     beta=0.70
     Davidson diagonalization with overlap
     ethr =  4.13E-09,  avg # of iterations =  3.0

     negative rho (up, down):  1.971E+00 0.000E+00

     total cpu time spent up to now is     5766.7 secs

     total energy              =   -7379.97833852 Ry
     Harris-Foulkes estimate   =   -7379.97834822 Ry
     estimated scf accuracy    <       0.00004847 Ry

     iteration # 19     ecut=    50.00 Ry     beta=0.70
     Davidson diagonalization with overlap
     ethr =  4.13E-09,  avg # of iterations =  2.0

     negative rho (up, down):  1.971E+00 0.000E+00

     total cpu time spent up to now is     5974.0 secs

     total energy              =   -7379.97834276 Ry
     Harris-Foulkes estimate   =   -7379.97834478 Ry
     estimated scf accuracy    <       0.00000751 Ry

     iteration # 20     ecut=    50.00 Ry     beta=0.70
     Davidson diagonalization with overlap
     ethr =  9.38E-10,  avg # of iterations =  2.0

     negative rho (up, down):  1.971E+00 0.000E+00

     total cpu time spent up to now is     6186.1 secs

     total energy              =   -7379.97834366 Ry
     Harris-Foulkes estimate   =   -7379.97834413 Ry
     estimated scf accuracy    <       0.00000146 Ry

     iteration # 21     ecut=    50.00 Ry     beta=0.70
     Davidson diagonalization with overlap
     ethr =  1.83E-10,  avg # of iterations =  3.0

     negative rho (up, down):  1.971E+00 0.000E+00

     total cpu time spent up to now is     6429.1 secs

     total energy              =   -7379.97834382 Ry
     Harris-Foulkes estimate   =   -7379.97834411 Ry
     estimated scf accuracy    <       0.00000117 Ry

     iteration # 22     ecut=    50.00 Ry     beta=0.70
     Davidson diagonalization with overlap
     ethr =  1.47E-10,  avg # of iterations =  2.0

     negative rho (up, down):  1.971E+00 0.000E+00

     total cpu time spent up to now is     6639.9 secs

     total energy              =   -7379.97834392 Ry
     Harris-Foulkes estimate   =   -7379.97834405 Ry
     estimated scf accuracy    <       0.00000042 Ry

     iteration # 23     ecut=    50.00 Ry     beta=0.70
     Davidson diagonalization with overlap
     ethr =  5.29E-11,  avg # of iterations =  3.0

     negative rho (up, down):  1.971E+00 0.000E+00

     total cpu time spent up to now is     6859.8 secs

     total energy              =   -7379.97834397 Ry
     Harris-Foulkes estimate   =   -7379.97834400 Ry
     estimated scf accuracy    <       0.00000009 Ry

     iteration # 24     ecut=    50.00 Ry     beta=0.70
     Davidson diagonalization with overlap
     ethr =  1.16E-11,  avg # of iterations =  3.0

     negative rho (up, down):  1.971E+00 0.000E+00

     total cpu time spent up to now is     7105.9 secs

     total energy              =   -7379.97834397 Ry
     Harris-Foulkes estimate   =   -7379.97834401 Ry
     estimated scf accuracy    <       0.00000026 Ry

     iteration # 25     ecut=    50.00 Ry     beta=0.70
     Davidson diagonalization with overlap
     ethr =  1.16E-11,  avg # of iterations =  2.0

     negative rho (up, down):  1.971E+00 0.000E+00

     total cpu time spent up to now is     7321.0 secs

     total energy              =   -7379.97834399 Ry
     Harris-Foulkes estimate   =   -7379.97834400 Ry
     estimated scf accuracy    <       0.00000002 Ry

     iteration # 26     ecut=    50.00 Ry     beta=0.70
     Davidson diagonalization with overlap
     ethr =  2.71E-12,  avg # of iterations =  2.0

     negative rho (up, down):  1.971E+00 0.000E+00

     total cpu time spent up to now is     7541.5 secs

     total energy              =   -7379.97834399 Ry
     Harris-Foulkes estimate   =   -7379.97834400 Ry
     estimated scf accuracy    <       0.00000013 Ry

     iteration # 27     ecut=    50.00 Ry     beta=0.70
     Davidson diagonalization with overlap
     ethr =  2.71E-12,  avg # of iterations =  2.0

     negative rho (up, down):  1.971E+00 0.000E+00

     total cpu time spent up to now is     7762.2 secs

     total energy              =   -7379.97834400 Ry
     Harris-Foulkes estimate   =   -7379.97834400 Ry
     estimated scf accuracy    <       0.00000002 Ry

     iteration # 28     ecut=    50.00 Ry     beta=0.70
     Davidson diagonalization with overlap
     ethr =  1.90E-12,  avg # of iterations =  2.0

     negative rho (up, down):  1.971E+00 0.000E+00

     total cpu time spent up to now is     7969.1 secs

     End of self-consistent calculation

          k = 0.2500 0.2500 0.0833 (167653 PWs)   bands (ev):

   -19.0864  -6.9116  -6.8999  -6.3813  -6.3811  -5.9431  -5.5395  -5.4409
    -5.4407  -5.2191  -5.2191  -5.1222  -5.1218  -4.9885  -4.9810  -4.8715
    -4.7833  -4.7788  -4.7577  -4.7577  -4.5767  -4.5755  -4.5753  -4.5492
    -4.5446  -4.5440  -4.5398  -4.4869  -4.4867  -4.4842  -4.4840  -4.4204
    -4.3919  -4.3919  -4.3351  -4.3320  -4.3306  -4.2947  -4.2945  -4.2808
    -4.2759  -4.2573  -4.2573  -4.2206  -4.1879  -4.1877  -4.1844  -4.1817
    -4.1816  -4.1516  -4.1213  -4.1211  -4.0916  -4.0915  -4.0876  -4.0875
    -4.0858  -4.0790  -4.0471  -4.0469  -3.9869  -3.9867  -3.9545  -3.9289
    -3.9210  -3.9178  -3.9172  -3.8953  -3.8953  -3.8834  -3.8331  -3.8331
    -3.8273  -3.8271  -3.7417  -3.7415  -3.7195  -3.7193  -3.6848  -3.6835
    -3.6678  -3.6436  -3.6436  -3.5992  -3.5991  -3.5967  -3.5965  -3.5719
    -3.5717  -3.4916  -3.4911  -3.4905  -3.4743  -3.4603  -3.4570  -3.4444
    -3.4443  -3.4370  -3.4369  -3.3943  -3.3943  -3.3716  -3.3714  -3.3346
    -3.3345  -3.3083  -3.2873  -3.2872  -3.2410  -3.2409  -3.2084  -3.1808
    -3.1806  -3.1797  -3.1794  -3.1753  -3.1753  -3.1490  -3.1376  -3.1000
    -3.1000  -3.0950  -3.0789  -3.0553  -3.0524  -3.0522  -3.0456  -3.0454
    -3.0413  -3.0412  -3.0061  -3.0051  -3.0051  -2.9996  -2.9996  -2.9946
    -2.9388  -2.9343  -2.9296  -2.9294  -2.9074  -2.9073  -2.9020  -2.8134
    -2.8028  -2.8026  -2.7931  -2.7929  -2.7873  -2.7861  -2.7851  -2.7771
    -2.7770  -2.7663  -2.7590  -2.7556  -2.7554  -2.7512  -2.7409  -2.7361
    -2.7339  -2.7116  -2.7010  -2.7008  -2.6851  -2.6850  -2.6680  -2.6680
    -2.6592  -2.6591  -2.6385  -2.6257  -2.6257  -2.6204  -2.6203  -2.5865
    -2.5841  -2.5841  -2.5263  -2.5223  -2.5077  -2.5076  -2.4968  -2.4928
    -2.4696  -2.4695  -2.4653  -2.4525  -2.4524  -2.4409  -2.4406  -2.4241
    -2.4238  -2.3967  -2.3967  -2.3865  -2.3863  -2.3766  -2.3765  -2.3594
    -2.3463  -2.3257  -2.2570  -2.2551  -2.2360  -2.2359  -2.2240  -2.2240
    -2.1739  -2.1736  -2.1587  -2.1391  -2.1266  -2.1265  -2.1084  -2.0900
    -2.0899  -2.0767  -2.0699  -2.0401  -2.0397  -2.0361  -2.0270  -2.0270
    -2.0215  -2.0213  -2.0035  -1.9918  -1.9839  -1.9838  -1.9833  -1.9833
    -1.9822  -1.9819  -1.9681  -1.9481  -1.9480  -1.9446  -1.9393  -1.9265
    -1.9264  -1.9220  -1.9218  -1.9160  -1.9142  -1.8798  -1.8795  -1.8352
    -1.8160  -1.8158  -1.7701  -1.7700  -1.7699  -1.7592  -1.7590  -1.7453
    -1.7450  -1.7376  -1.7374  -1.7270  -1.7269  -1.7066  -1.7065  -1.6697
    -1.6695  -1.6521  -1.6299  -1.6298  -1.5904  -1.5903  -1.5396  -1.5396
    -1.5187  -1.4951  -1.4922  -1.4917  -1.4873  -1.4851  -1.4661  -1.4659
    -1.4649  -1.4647  -1.4629  -1.4627  -1.4619  -1.4608  -1.4596  -1.4326
    -1.4326  -1.3996  -1.3987  -1.3987  -1.3761  -1.3760  -1.3716  -1.3714
    -1.3684  -1.3579  -1.3302  -1.3300  -1.3057  -1.3043  -1.3041  -1.2840
    -1.2728  -1.2726  -1.2434  -1.2432  -1.2364  -1.2363  -1.1978  -1.1975
    -1.1857  -1.1855  -1.1849  -1.1848  -1.1585  -1.1583  -1.1443  -1.1370
    -1.1368  -1.1251  -1.1249  -1.1231  -1.1229  -1.1120  -1.1020  -1.1009
    -1.0943  -1.0942  -1.0874  -1.0833  -1.0833  -1.0670  -1.0544  -1.0248
    -1.0232  -1.0228  -1.0220  -1.0194  -1.0156  -0.9882  -0.9881  -0.9744
    -0.9568  -0.9565  -0.9482  -0.9482  -0.9399  -0.9337  -0.9305  -0.8951
    -0.8949  -0.8835  -0.8835  -0.8632  -0.8631  -0.8476  -0.8236  -0.8155
    -0.7977  -0.7976  -0.7600  -0.7598  -0.7572  -0.7566  -0.7555  -0.7505
    -0.7489  -0.7488  -0.7442  -0.7422  -0.7091  -0.7089  -0.7080  -0.7077
    -0.7059  -0.7056  -0.6921  -0.6919  -0.6637  -0.4038  -0.3929  -0.3496
    -0.3487  -0.3182  -0.2593  -0.1069  -0.1068  -0.0761   0.2086   0.2087
     0.5492   0.5501   0.5931   0.5932   0.6431   0.6435   0.8027   0.8031
     0.9306   0.9328   1.0462   1.5417   1.5819   1.5897   1.6245   1.6252
     1.7613   1.7639   1.8183   1.8186   2.0009   2.0011   2.2861   2.3127
     2.3136   2.3340   2.7681   2.7704   2.7925   2.7927   2.8089   2.8091
     2.8745   2.8754   3.0317   3.1528   3.1539   3.3424   3.3440   3.4497
     3.5216   3.5219   3.8212   3.8220   3.8784   3.8799   3.8800   4.0267
     4.0273   4.0384   4.0523   4.3224   4.3244   4.3603   4.3607   4.4756
     4.4781   4.5406   4.5433   4.8136   5.1195   5.4243   5.4250   5.5063
     5.5179   5.6311   5.6316   5.7029   5.7037   5.7202   5.7205   5.8174
     5.8326   5.9085   6.0339   6.1191   6.1204   6.1288   6.1317   6.1346
     6.1354   6.1505   6.3019   6.3094   6.3513   6.3965   6.4288   6.4491

          k = 0.2500 0.2500-0.2500 (167588 PWs)   bands (ev):

   -19.0864  -6.9116  -6.8999  -6.3813  -6.3811  -5.9431  -5.5395  -5.4409
    -5.4407  -5.2191  -5.2191  -5.1222  -5.1218  -4.9885  -4.9810  -4.8715
    -4.7832  -4.7788  -4.7577  -4.7577  -4.5767  -4.5755  -4.5753  -4.5492
    -4.5446  -4.5440  -4.5398  -4.4869  -4.4867  -4.4842  -4.4840  -4.4204
    -4.3919  -4.3919  -4.3351  -4.3320  -4.3306  -4.2947  -4.2945  -4.2808
    -4.2759  -4.2573  -4.2573  -4.2206  -4.1879  -4.1877  -4.1844  -4.1817
    -4.1816  -4.1516  -4.1213  -4.1211  -4.0916  -4.0915  -4.0876  -4.0875
    -4.0858  -4.0790  -4.0471  -4.0469  -3.9869  -3.9867  -3.9545  -3.9289
    -3.9210  -3.9178  -3.9172  -3.8953  -3.8953  -3.8834  -3.8331  -3.8331
    -3.8273  -3.8271  -3.7417  -3.7415  -3.7195  -3.7193  -3.6848  -3.6835
    -3.6678  -3.6436  -3.6436  -3.5992  -3.5991  -3.5967  -3.5966  -3.5719
    -3.5717  -3.4916  -3.4911  -3.4905  -3.4743  -3.4603  -3.4570  -3.4444
    -3.4443  -3.4370  -3.4369  -3.3943  -3.3943  -3.3716  -3.3714  -3.3346
    -3.3345  -3.3083  -3.2873  -3.2872  -3.2410  -3.2409  -3.2084  -3.1808
    -3.1806  -3.1797  -3.1794  -3.1753  -3.1753  -3.1490  -3.1376  -3.1000
    -3.1000  -3.0950  -3.0789  -3.0553  -3.0524  -3.0522  -3.0456  -3.0454
    -3.0413  -3.0412  -3.0061  -3.0051  -3.0051  -2.9996  -2.9995  -2.9945
    -2.9388  -2.9343  -2.9296  -2.9294  -2.9074  -2.9073  -2.9020  -2.8134
    -2.8028  -2.8026  -2.7931  -2.7929  -2.7873  -2.7861  -2.7851  -2.7771
    -2.7770  -2.7664  -2.7590  -2.7556  -2.7554  -2.7512  -2.7409  -2.7361
    -2.7339  -2.7116  -2.7010  -2.7008  -2.6851  -2.6850  -2.6680  -2.6680
    -2.6592  -2.6590  -2.6385  -2.6257  -2.6257  -2.6204  -2.6203  -2.5865
    -2.5841  -2.5841  -2.5263  -2.5223  -2.5077  -2.5076  -2.4968  -2.4928
    -2.4696  -2.4695  -2.4653  -2.4525  -2.4523  -2.4409  -2.4406  -2.4241
    -2.4238  -2.3967  -2.3967  -2.3865  -2.3863  -2.3766  -2.3765  -2.3594
    -2.3463  -2.3257  -2.2570  -2.2551  -2.2360  -2.2359  -2.2240  -2.2240
    -2.1739  -2.1736  -2.1587  -2.1392  -2.1266  -2.1265  -2.1084  -2.0900
    -2.0899  -2.0767  -2.0699  -2.0401  -2.0397  -2.0361  -2.0270  -2.0270
    -2.0215  -2.0213  -2.0035  -1.9918  -1.9839  -1.9837  -1.9833  -1.9833
    -1.9822  -1.9819  -1.9681  -1.9481  -1.9480  -1.9446  -1.9393  -1.9265
    -1.9264  -1.9220  -1.9218  -1.9160  -1.9142  -1.8798  -1.8795  -1.8353
    -1.8160  -1.8158  -1.7701  -1.7700  -1.7699  -1.7592  -1.7590  -1.7452
    -1.7450  -1.7376  -1.7374  -1.7270  -1.7269  -1.7066  -1.7065  -1.6697
    -1.6695  -1.6521  -1.6299  -1.6298  -1.5904  -1.5903  -1.5396  -1.5396
    -1.5187  -1.4951  -1.4922  -1.4917  -1.4873  -1.4851  -1.4661  -1.4659
    -1.4649  -1.4647  -1.4629  -1.4627  -1.4619  -1.4608  -1.4596  -1.4326
    -1.4326  -1.3996  -1.3987  -1.3987  -1.3761  -1.3760  -1.3716  -1.3714
    -1.3683  -1.3579  -1.3302  -1.3300  -1.3057  -1.3043  -1.3041  -1.2841
    -1.2728  -1.2726  -1.2434  -1.2432  -1.2364  -1.2363  -1.1977  -1.1975
    -1.1857  -1.1855  -1.1849  -1.1848  -1.1585  -1.1583  -1.1443  -1.1370
    -1.1368  -1.1251  -1.1249  -1.1231  -1.1229  -1.1120  -1.1020  -1.1009
    -1.0943  -1.0942  -1.0874  -1.0833  -1.0832  -1.0670  -1.0544  -1.0249
    -1.0232  -1.0228  -1.0220  -1.0194  -1.0156  -0.9882  -0.9881  -0.9744
    -0.9568  -0.9565  -0.9482  -0.9482  -0.9399  -0.9337  -0.9305  -0.8951
    -0.8949  -0.8835  -0.8835  -0.8632  -0.8631  -0.8477  -0.8236  -0.8155
    -0.7977  -0.7976  -0.7600  -0.7598  -0.7572  -0.7566  -0.7555  -0.7505
    -0.7489  -0.7488  -0.7442  -0.7422  -0.7091  -0.7089  -0.7080  -0.7076
    -0.7059  -0.7056  -0.6921  -0.6919  -0.6636  -0.4038  -0.3929  -0.3496
    -0.3487  -0.3182  -0.2593  -0.1069  -0.1068  -0.0761   0.2086   0.2087
     0.5492   0.5501   0.5931   0.5932   0.6431   0.6435   0.8027   0.8031
     0.9306   0.9328   1.0462   1.5417   1.5819   1.5897   1.6245   1.6252
     1.7613   1.7639   1.8183   1.8186   2.0009   2.0011   2.2861   2.3127
     2.3136   2.3340   2.7681   2.7704   2.7925   2.7927   2.8089   2.8091
     2.8745   2.8754   3.0317   3.1528   3.1539   3.3424   3.3440   3.4497
     3.5216   3.5219   3.8212   3.8220   3.8784   3.8799   3.8800   4.0267
     4.0273   4.0385   4.0524   4.3224   4.3244   4.3603   4.3607   4.4756
     4.4781   4.5406   4.5433   4.8137   5.1171   5.4243   5.4249   5.5064
     5.5173   5.6311   5.6316   5.7029   5.7036   5.7202   5.7205   5.8111
     5.8325   5.8887   6.0755   6.1194   6.1206   6.1294   6.1342   6.1346
     6.1482   6.1558   6.3010   6.3088   6.3905   6.4207   6.4360   6.4583

          k =-0.2500-0.2500 0.0833 (167653 PWs)   bands (ev):

   -19.0864  -6.9116  -6.8999  -6.3813  -6.3811  -5.9431  -5.5395  -5.4409
    -5.4407  -5.2191  -5.2191  -5.1222  -5.1218  -4.9885  -4.9810  -4.8715
    -4.7833  -4.7788  -4.7577  -4.7577  -4.5767  -4.5755  -4.5753  -4.5492
    -4.5446  -4.5440  -4.5398  -4.4869  -4.4867  -4.4842  -4.4840  -4.4204
    -4.3919  -4.3919  -4.3351  -4.3320  -4.3306  -4.2947  -4.2945  -4.2808
    -4.2759  -4.2573  -4.2573  -4.2206  -4.1879  -4.1877  -4.1844  -4.1817
    -4.1816  -4.1516  -4.1213  -4.1211  -4.0916  -4.0915  -4.0876  -4.0875
    -4.0858  -4.0790  -4.0471  -4.0469  -3.9869  -3.9867  -3.9545  -3.9289
    -3.9210  -3.9178  -3.9172  -3.8953  -3.8953  -3.8834  -3.8331  -3.8331
    -3.8273  -3.8271  -3.7417  -3.7415  -3.7195  -3.7193  -3.6848  -3.6835
    -3.6678  -3.6436  -3.6436  -3.5992  -3.5991  -3.5967  -3.5965  -3.5719
    -3.5717  -3.4916  -3.4911  -3.4905  -3.4743  -3.4603  -3.4570  -3.4444
    -3.4443  -3.4370  -3.4369  -3.3943  -3.3943  -3.3716  -3.3714  -3.3346
    -3.3345  -3.3083  -3.2873  -3.2872  -3.2410  -3.2409  -3.2084  -3.1808
    -3.1806  -3.1797  -3.1794  -3.1753  -3.1753  -3.1490  -3.1376  -3.1000
    -3.1000  -3.0950  -3.0789  -3.0553  -3.0524  -3.0522  -3.0456  -3.0454
    -3.0413  -3.0412  -3.0061  -3.0051  -3.0051  -2.9996  -2.9996  -2.9946
    -2.9388  -2.9343  -2.9296  -2.9294  -2.9074  -2.9073  -2.9020  -2.8134
    -2.8028  -2.8026  -2.7931  -2.7929  -2.7873  -2.7861  -2.7851  -2.7771
    -2.7770  -2.7663  -2.7590  -2.7556  -2.7554  -2.7512  -2.7409  -2.7361
    -2.7339  -2.7116  -2.7010  -2.7008  -2.6851  -2.6850  -2.6680  -2.6680
    -2.6592  -2.6591  -2.6385  -2.6257  -2.6257  -2.6204  -2.6203  -2.5865
    -2.5841  -2.5841  -2.5263  -2.5223  -2.5077  -2.5076  -2.4968  -2.4928
    -2.4696  -2.4695  -2.4653  -2.4525  -2.4524  -2.4409  -2.4406  -2.4241
    -2.4238  -2.3967  -2.3967  -2.3865  -2.3863  -2.3766  -2.3765  -2.3594
    -2.3463  -2.3257  -2.2570  -2.2551  -2.2360  -2.2359  -2.2240  -2.2240
    -2.1739  -2.1736  -2.1587  -2.1391  -2.1266  -2.1265  -2.1084  -2.0900
    -2.0899  -2.0767  -2.0699  -2.0401  -2.0397  -2.0361  -2.0270  -2.0270
    -2.0215  -2.0213  -2.0035  -1.9918  -1.9839  -1.9838  -1.9833  -1.9833
    -1.9822  -1.9819  -1.9681  -1.9481  -1.9480  -1.9446  -1.9393  -1.9265
    -1.9264  -1.9220  -1.9218  -1.9160  -1.9142  -1.8798  -1.8795  -1.8352
    -1.8160  -1.8158  -1.7701  -1.7700  -1.7699  -1.7592  -1.7590  -1.7453
    -1.7450  -1.7376  -1.7374  -1.7270  -1.7269  -1.7066  -1.7065  -1.6697
    -1.6695  -1.6521  -1.6299  -1.6298  -1.5904  -1.5903  -1.5396  -1.5396
    -1.5187  -1.4951  -1.4922  -1.4917  -1.4873  -1.4851  -1.4661  -1.4659
    -1.4649  -1.4647  -1.4629  -1.4627  -1.4619  -1.4608  -1.4596  -1.4326
    -1.4326  -1.3996  -1.3987  -1.3987  -1.3761  -1.3760  -1.3716  -1.3714
    -1.3684  -1.3579  -1.3302  -1.3300  -1.3057  -1.3043  -1.3041  -1.2840
    -1.2728  -1.2726  -1.2434  -1.2432  -1.2364  -1.2363  -1.1978  -1.1975
    -1.1857  -1.1855  -1.1849  -1.1848  -1.1585  -1.1583  -1.1443  -1.1370
    -1.1368  -1.1251  -1.1249  -1.1231  -1.1229  -1.1120  -1.1020  -1.1009
    -1.0943  -1.0942  -1.0874  -1.0833  -1.0833  -1.0670  -1.0544  -1.0248
    -1.0232  -1.0228  -1.0220  -1.0194  -1.0156  -0.9882  -0.9881  -0.9744
    -0.9568  -0.9565  -0.9482  -0.9482  -0.9399  -0.9337  -0.9305  -0.8951
    -0.8949  -0.8835  -0.8835  -0.8632  -0.8631  -0.8476  -0.8236  -0.8155
    -0.7977  -0.7976  -0.7600  -0.7598  -0.7572  -0.7566  -0.7555  -0.7505
    -0.7489  -0.7488  -0.7442  -0.7422  -0.7091  -0.7089  -0.7080  -0.7077
    -0.7059  -0.7056  -0.6921  -0.6919  -0.6637  -0.4038  -0.3929  -0.3496
    -0.3487  -0.3182  -0.2593  -0.1069  -0.1068  -0.0761   0.2086   0.2087
     0.5492   0.5501   0.5931   0.5932   0.6431   0.6435   0.8027   0.8031
     0.9306   0.9328   1.0462   1.5417   1.5819   1.5897   1.6245   1.6252
     1.7613   1.7639   1.8183   1.8186   2.0009   2.0011   2.2861   2.3127
     2.3136   2.3340   2.7681   2.7704   2.7925   2.7927   2.8089   2.8091
     2.8745   2.8754   3.0317   3.1528   3.1539   3.3424   3.3440   3.4497
     3.5216   3.5219   3.8212   3.8220   3.8784   3.8799   3.8800   4.0267
     4.0273   4.0384   4.0523   4.3224   4.3244   4.3603   4.3607   4.4756
     4.4781   4.5406   4.5433   4.8136   5.1195   5.4243   5.4250   5.5063
     5.5179   5.6311   5.6316   5.7029   5.7037   5.7202   5.7205   5.8174
     5.8326   5.9080   6.0352   6.1191   6.1204   6.1287   6.1315   6.1346
     6.1353   6.1505   6.3020   6.3094   6.3510   6.3967   6.4286   6.4491

          k =-0.2500 0.2500-0.0833 (167653 PWs)   bands (ev):

   -19.0864  -6.9116  -6.8999  -6.3813  -6.3811  -5.9431  -5.5395  -5.4409
    -5.4407  -5.2191  -5.2191  -5.1222  -5.1218  -4.9885  -4.9810  -4.8715
    -4.7832  -4.7788  -4.7577  -4.7577  -4.5767  -4.5755  -4.5753  -4.5492
    -4.5446  -4.5440  -4.5398  -4.4869  -4.4867  -4.4842  -4.4840  -4.4204
    -4.3919  -4.3919  -4.3351  -4.3320  -4.3306  -4.2947  -4.2945  -4.2808
    -4.2759  -4.2573  -4.2573  -4.2206  -4.1878  -4.1877  -4.1844  -4.1817
    -4.1816  -4.1516  -4.1213  -4.1211  -4.0916  -4.0915  -4.0876  -4.0875
    -4.0858  -4.0790  -4.0472  -4.0468  -3.9870  -3.9867  -3.9545  -3.9288
    -3.9210  -3.9178  -3.9172  -3.8953  -3.8952  -3.8834  -3.8331  -3.8331
    -3.8273  -3.8271  -3.7417  -3.7415  -3.7196  -3.7193  -3.6848  -3.6835
    -3.6678  -3.6436  -3.6436  -3.5992  -3.5990  -3.5967  -3.5965  -3.5719
    -3.5717  -3.4916  -3.4912  -3.4905  -3.4743  -3.4603  -3.4570  -3.4445
    -3.4443  -3.4370  -3.4369  -3.3943  -3.3943  -3.3716  -3.3714  -3.3346
    -3.3345  -3.3083  -3.2873  -3.2872  -3.2410  -3.2409  -3.2084  -3.1808
    -3.1805  -3.1798  -3.1794  -3.1753  -3.1753  -3.1490  -3.1376  -3.1000
    -3.1000  -3.0950  -3.0789  -3.0553  -3.0523  -3.0523  -3.0455  -3.0454
    -3.0413  -3.0412  -3.0061  -3.0051  -3.0051  -2.9996  -2.9995  -2.9946
    -2.9388  -2.9343  -2.9296  -2.9294  -2.9074  -2.9073  -2.9020  -2.8134
    -2.8028  -2.8026  -2.7931  -2.7929  -2.7873  -2.7860  -2.7851  -2.7771
    -2.7770  -2.7663  -2.7590  -2.7556  -2.7554  -2.7512  -2.7409  -2.7361
    -2.7339  -2.7116  -2.7010  -2.7008  -2.6851  -2.6850  -2.6680  -2.6680
    -2.6592  -2.6590  -2.6385  -2.6257  -2.6257  -2.6204  -2.6203  -2.5865
    -2.5841  -2.5841  -2.5263  -2.5223  -2.5077  -2.5076  -2.4968  -2.4928
    -2.4696  -2.4695  -2.4653  -2.4525  -2.4523  -2.4409  -2.4406  -2.4241
    -2.4237  -2.3967  -2.3967  -2.3865  -2.3863  -2.3766  -2.3765  -2.3594
    -2.3463  -2.3257  -2.2570  -2.2551  -2.2360  -2.2359  -2.2240  -2.2240
    -2.1740  -2.1736  -2.1587  -2.1391  -2.1266  -2.1265  -2.1084  -2.0900
    -2.0899  -2.0767  -2.0699  -2.0401  -2.0396  -2.0361  -2.0270  -2.0270
    -2.0215  -2.0213  -2.0035  -1.9919  -1.9839  -1.9838  -1.9833  -1.9833
    -1.9822  -1.9818  -1.9681  -1.9481  -1.9480  -1.9446  -1.9393  -1.9265
    -1.9263  -1.9220  -1.9218  -1.9160  -1.9142  -1.8798  -1.8795  -1.8352
    -1.8159  -1.8158  -1.7701  -1.7700  -1.7699  -1.7592  -1.7590  -1.7453
    -1.7450  -1.7376  -1.7374  -1.7271  -1.7268  -1.7066  -1.7065  -1.6697
    -1.6695  -1.6521  -1.6299  -1.6298  -1.5904  -1.5902  -1.5397  -1.5396
    -1.5187  -1.4950  -1.4923  -1.4917  -1.4873  -1.4851  -1.4661  -1.4658
    -1.4650  -1.4647  -1.4629  -1.4626  -1.4619  -1.4608  -1.4597  -1.4326
    -1.4326  -1.3996  -1.3987  -1.3987  -1.3761  -1.3760  -1.3716  -1.3714
    -1.3684  -1.3579  -1.3302  -1.3300  -1.3057  -1.3043  -1.3041  -1.2840
    -1.2728  -1.2726  -1.2434  -1.2432  -1.2364  -1.2363  -1.1978  -1.1975
    -1.1857  -1.1855  -1.1849  -1.1847  -1.1585  -1.1583  -1.1443  -1.1370
    -1.1368  -1.1252  -1.1248  -1.1232  -1.1229  -1.1120  -1.1020  -1.1009
    -1.0943  -1.0942  -1.0874  -1.0833  -1.0832  -1.0670  -1.0544  -1.0248
    -1.0232  -1.0228  -1.0220  -1.0194  -1.0156  -0.9882  -0.9881  -0.9744
    -0.9568  -0.9564  -0.9482  -0.9482  -0.9399  -0.9337  -0.9305  -0.8951
    -0.8948  -0.8835  -0.8835  -0.8632  -0.8631  -0.8476  -0.8236  -0.8155
    -0.7978  -0.7976  -0.7600  -0.7599  -0.7572  -0.7566  -0.7555  -0.7505
    -0.7489  -0.7488  -0.7442  -0.7422  -0.7091  -0.7089  -0.7080  -0.7076
    -0.7059  -0.7056  -0.6921  -0.6919  -0.6637  -0.4038  -0.3929  -0.3497
    -0.3486  -0.3182  -0.2593  -0.1070  -0.1067  -0.0761   0.2086   0.2087
     0.5491   0.5501   0.5931   0.5932   0.6430   0.6435   0.8026   0.8031
     0.9306   0.9328   1.0462   1.5417   1.5819   1.5897   1.6245   1.6252
     1.7611   1.7641   1.8182   1.8187   2.0009   2.0011   2.2861   2.3126
     2.3137   2.3340   2.7679   2.7706   2.7925   2.7927   2.8088   2.8091
     2.8745   2.8754   3.0317   3.1527   3.1540   3.3424   3.3440   3.4497
     3.5215   3.5219   3.8211   3.8221   3.8784   3.8799   3.8800   4.0267
     4.0273   4.0378   4.0529   4.3224   4.3244   4.3603   4.3607   4.4756
     4.4781   4.5405   4.5435   4.8143   5.1188   5.4245   5.4251   5.5068
     5.5164   5.6310   5.6317   5.7030   5.7037   5.7202   5.7205   5.8156
     5.8325   5.9062   6.0299   6.1191   6.1206   6.1296   6.1339   6.1346
     6.1426   6.1546   6.3016   6.3098   6.3505   6.4003   6.4253   6.4497

          k = 0.2500-0.2500-0.0833 (167653 PWs)   bands (ev):

   -19.0864  -6.9116  -6.8999  -6.3813  -6.3811  -5.9431  -5.5395  -5.4409
    -5.4407  -5.2191  -5.2191  -5.1222  -5.1218  -4.9885  -4.9810  -4.8715
    -4.7832  -4.7788  -4.7577  -4.7577  -4.5767  -4.5755  -4.5753  -4.5492
    -4.5446  -4.5440  -4.5398  -4.4869  -4.4867  -4.4842  -4.4840  -4.4204
    -4.3919  -4.3919  -4.3351  -4.3320  -4.3306  -4.2947  -4.2945  -4.2808
    -4.2759  -4.2573  -4.2573  -4.2206  -4.1878  -4.1877  -4.1844  -4.1817
    -4.1816  -4.1516  -4.1213  -4.1211  -4.0916  -4.0915  -4.0876  -4.0875
    -4.0858  -4.0790  -4.0472  -4.0468  -3.9870  -3.9867  -3.9545  -3.9288
    -3.9210  -3.9178  -3.9172  -3.8953  -3.8952  -3.8834  -3.8331  -3.8331
    -3.8273  -3.8271  -3.7417  -3.7415  -3.7196  -3.7193  -3.6848  -3.6835
    -3.6678  -3.6436  -3.6436  -3.5992  -3.5990  -3.5967  -3.5965  -3.5719
    -3.5717  -3.4916  -3.4912  -3.4905  -3.4743  -3.4603  -3.4570  -3.4445
    -3.4443  -3.4370  -3.4369  -3.3943  -3.3943  -3.3716  -3.3714  -3.3346
    -3.3345  -3.3083  -3.2873  -3.2872  -3.2410  -3.2409  -3.2084  -3.1808
    -3.1805  -3.1798  -3.1794  -3.1753  -3.1753  -3.1490  -3.1376  -3.1000
    -3.1000  -3.0950  -3.0789  -3.0553  -3.0523  -3.0523  -3.0455  -3.0454
    -3.0413  -3.0412  -3.0061  -3.0051  -3.0051  -2.9996  -2.9995  -2.9946
    -2.9388  -2.9343  -2.9296  -2.9294  -2.9074  -2.9073  -2.9020  -2.8134
    -2.8028  -2.8026  -2.7931  -2.7929  -2.7873  -2.7860  -2.7851  -2.7771
    -2.7770  -2.7663  -2.7590  -2.7556  -2.7554  -2.7512  -2.7409  -2.7361
    -2.7339  -2.7116  -2.7010  -2.7008  -2.6851  -2.6850  -2.6680  -2.6680
    -2.6592  -2.6590  -2.6385  -2.6257  -2.6257  -2.6204  -2.6203  -2.5865
    -2.5841  -2.5841  -2.5263  -2.5223  -2.5077  -2.5076  -2.4968  -2.4928
    -2.4696  -2.4695  -2.4653  -2.4525  -2.4523  -2.4409  -2.4406  -2.4241
    -2.4237  -2.3967  -2.3967  -2.3865  -2.3863  -2.3766  -2.3765  -2.3594
    -2.3463  -2.3257  -2.2570  -2.2551  -2.2360  -2.2359  -2.2240  -2.2240
    -2.1740  -2.1736  -2.1587  -2.1391  -2.1266  -2.1265  -2.1084  -2.0900
    -2.0899  -2.0767  -2.0699  -2.0401  -2.0396  -2.0361  -2.0270  -2.0270
    -2.0215  -2.0213  -2.0035  -1.9919  -1.9839  -1.9838  -1.9833  -1.9833
    -1.9822  -1.9818  -1.9681  -1.9481  -1.9480  -1.9446  -1.9393  -1.9265
    -1.9263  -1.9220  -1.9218  -1.9160  -1.9142  -1.8798  -1.8795  -1.8352
    -1.8159  -1.8158  -1.7701  -1.7700  -1.7699  -1.7592  -1.7590  -1.7453
    -1.7450  -1.7376  -1.7374  -1.7271  -1.7268  -1.7066  -1.7065  -1.6697
    -1.6695  -1.6521  -1.6299  -1.6298  -1.5904  -1.5902  -1.5397  -1.5396
    -1.5187  -1.4950  -1.4923  -1.4917  -1.4873  -1.4851  -1.4661  -1.4658
    -1.4650  -1.4647  -1.4629  -1.4626  -1.4619  -1.4608  -1.4597  -1.4326
    -1.4326  -1.3996  -1.3987  -1.3987  -1.3761  -1.3760  -1.3716  -1.3714
    -1.3684  -1.3579  -1.3302  -1.3300  -1.3057  -1.3043  -1.3041  -1.2840
    -1.2728  -1.2726  -1.2434  -1.2432  -1.2364  -1.2363  -1.1978  -1.1975
    -1.1857  -1.1855  -1.1849  -1.1847  -1.1585  -1.1583  -1.1443  -1.1370
    -1.1368  -1.1252  -1.1248  -1.1232  -1.1229  -1.1120  -1.1020  -1.1009
    -1.0943  -1.0942  -1.0874  -1.0833  -1.0832  -1.0670  -1.0544  -1.0248
    -1.0232  -1.0228  -1.0220  -1.0194  -1.0156  -0.9882  -0.9881  -0.9744
    -0.9568  -0.9564  -0.9482  -0.9482  -0.9399  -0.9337  -0.9305  -0.8951
    -0.8948  -0.8835  -0.8835  -0.8632  -0.8631  -0.8476  -0.8236  -0.8155
    -0.7978  -0.7976  -0.7600  -0.7599  -0.7572  -0.7566  -0.7555  -0.7505
    -0.7489  -0.7488  -0.7442  -0.7422  -0.7091  -0.7089  -0.7080  -0.7076
    -0.7059  -0.7056  -0.6921  -0.6919  -0.6637  -0.4038  -0.3929  -0.3497
    -0.3486  -0.3182  -0.2593  -0.1070  -0.1067  -0.0761   0.2086   0.2087
     0.5491   0.5501   0.5931   0.5932   0.6430   0.6435   0.8026   0.8031
     0.9306   0.9328   1.0462   1.5417   1.5819   1.5897   1.6245   1.6252
     1.7611   1.7641   1.8182   1.8187   2.0009   2.0011   2.2861   2.3126
     2.3137   2.3340   2.7679   2.7706   2.7925   2.7927   2.8088   2.8091
     2.8745   2.8754   3.0317   3.1527   3.1540   3.3424   3.3440   3.4497
     3.5215   3.5219   3.8211   3.8221   3.8784   3.8799   3.8800   4.0267
     4.0273   4.0378   4.0529   4.3224   4.3244   4.3603   4.3607   4.4756
     4.4781   4.5405   4.5435   4.8143   5.1188   5.4245   5.4251   5.5068
     5.5164   5.6310   5.6317   5.7030   5.7037   5.7202   5.7205   5.8157
     5.8325   5.9068   6.0286   6.1191   6.1206   6.1296   6.1339   6.1346
     6.1427   6.1548   6.3015   6.3099   6.3508   6.4002   6.4255   6.4498

          k =-0.2500 0.2500 0.2500 (167588 PWs)   bands (ev):

   -19.0864  -6.9116  -6.8999  -6.3813  -6.3811  -5.9431  -5.5395  -5.4409
    -5.4407  -5.2191  -5.2191  -5.1222  -5.1218  -4.9885  -4.9810  -4.8715
    -4.7832  -4.7788  -4.7577  -4.7577  -4.5767  -4.5755  -4.5753  -4.5492
    -4.5446  -4.5440  -4.5398  -4.4869  -4.4867  -4.4842  -4.4840  -4.4204
    -4.3919  -4.3919  -4.3351  -4.3320  -4.3306  -4.2947  -4.2945  -4.2808
    -4.2759  -4.2573  -4.2573  -4.2206  -4.1878  -4.1877  -4.1844  -4.1817
    -4.1816  -4.1516  -4.1213  -4.1211  -4.0916  -4.0915  -4.0876  -4.0875
    -4.0858  -4.0790  -4.0472  -4.0468  -3.9870  -3.9867  -3.9545  -3.9288
    -3.9210  -3.9178  -3.9172  -3.8953  -3.8952  -3.8834  -3.8331  -3.8331
    -3.8273  -3.8271  -3.7417  -3.7415  -3.7196  -3.7193  -3.6848  -3.6835
    -3.6678  -3.6436  -3.6436  -3.5992  -3.5990  -3.5967  -3.5965  -3.5719
    -3.5717  -3.4916  -3.4912  -3.4905  -3.4743  -3.4603  -3.4570  -3.4445
    -3.4443  -3.4370  -3.4369  -3.3943  -3.3943  -3.3716  -3.3714  -3.3346
    -3.3344  -3.3083  -3.2873  -3.2872  -3.2410  -3.2409  -3.2084  -3.1808
    -3.1805  -3.1798  -3.1794  -3.1753  -3.1753  -3.1490  -3.1377  -3.1000
    -3.1000  -3.0950  -3.0789  -3.0553  -3.0523  -3.0523  -3.0455  -3.0454
    -3.0413  -3.0412  -3.0061  -3.0051  -3.0051  -2.9996  -2.9995  -2.9945
    -2.9388  -2.9343  -2.9296  -2.9294  -2.9074  -2.9073  -2.9020  -2.8134
    -2.8028  -2.8026  -2.7931  -2.7929  -2.7873  -2.7860  -2.7851  -2.7771
    -2.7770  -2.7664  -2.7590  -2.7556  -2.7554  -2.7512  -2.7409  -2.7361
    -2.7339  -2.7116  -2.7010  -2.7007  -2.6851  -2.6850  -2.6680  -2.6680
    -2.6592  -2.6590  -2.6385  -2.6257  -2.6257  -2.6204  -2.6203  -2.5865
    -2.5841  -2.5841  -2.5263  -2.5223  -2.5077  -2.5076  -2.4968  -2.4928
    -2.4696  -2.4695  -2.4653  -2.4525  -2.4523  -2.4409  -2.4406  -2.4241
    -2.4237  -2.3967  -2.3967  -2.3865  -2.3863  -2.3766  -2.3765  -2.3593
    -2.3463  -2.3257  -2.2570  -2.2551  -2.2360  -2.2359  -2.2240  -2.2240
    -2.1740  -2.1736  -2.1587  -2.1392  -2.1266  -2.1265  -2.1084  -2.0900
    -2.0899  -2.0767  -2.0699  -2.0401  -2.0396  -2.0361  -2.0270  -2.0270
    -2.0215  -2.0213  -2.0035  -1.9919  -1.9839  -1.9838  -1.9833  -1.9833
    -1.9822  -1.9818  -1.9681  -1.9481  -1.9480  -1.9446  -1.9393  -1.9265
    -1.9263  -1.9220  -1.9218  -1.9160  -1.9142  -1.8798  -1.8795  -1.8353
    -1.8159  -1.8158  -1.7701  -1.7700  -1.7699  -1.7592  -1.7590  -1.7453
    -1.7450  -1.7376  -1.7374  -1.7270  -1.7268  -1.7066  -1.7065  -1.6697
    -1.6695  -1.6521  -1.6299  -1.6298  -1.5904  -1.5903  -1.5397  -1.5396
    -1.5187  -1.4951  -1.4923  -1.4917  -1.4873  -1.4851  -1.4661  -1.4658
    -1.4650  -1.4647  -1.4629  -1.4626  -1.4619  -1.4608  -1.4597  -1.4326
    -1.4326  -1.3996  -1.3987  -1.3987  -1.3761  -1.3760  -1.3716  -1.3714
    -1.3683  -1.3579  -1.3302  -1.3299  -1.3057  -1.3043  -1.3041  -1.2841
    -1.2728  -1.2726  -1.2434  -1.2432  -1.2364  -1.2363  -1.1978  -1.1975
    -1.1857  -1.1855  -1.1849  -1.1847  -1.1585  -1.1583  -1.1443  -1.1370
    -1.1368  -1.1252  -1.1248  -1.1232  -1.1229  -1.1120  -1.1020  -1.1009
    -1.0943  -1.0942  -1.0874  -1.0833  -1.0832  -1.0670  -1.0544  -1.0248
    -1.0232  -1.0228  -1.0220  -1.0194  -1.0156  -0.9882  -0.9881  -0.9744
    -0.9568  -0.9564  -0.9482  -0.9482  -0.9399  -0.9337  -0.9304  -0.8951
    -0.8948  -0.8835  -0.8835  -0.8632  -0.8631  -0.8477  -0.8236  -0.8155
    -0.7978  -0.7976  -0.7600  -0.7599  -0.7572  -0.7566  -0.7555  -0.7505
    -0.7489  -0.7488  -0.7442  -0.7422  -0.7091  -0.7089  -0.7080  -0.7076
    -0.7059  -0.7056  -0.6921  -0.6919  -0.6636  -0.4038  -0.3929  -0.3497
    -0.3486  -0.3182  -0.2593  -0.1070  -0.1067  -0.0761   0.2086   0.2087
     0.5491   0.5501   0.5931   0.5932   0.6430   0.6435   0.8026   0.8031
     0.9306   0.9328   1.0462   1.5417   1.5819   1.5897   1.6245   1.6252
     1.7611   1.7642   1.8182   1.8187   2.0009   2.0011   2.2861   2.3126
     2.3137   2.3340   2.7679   2.7705   2.7925   2.7927   2.8088   2.8091
     2.8745   2.8754   3.0317   3.1527   3.1541   3.3424   3.3440   3.4497
     3.5215   3.5219   3.8211   3.8221   3.8784   3.8799   3.8800   4.0267
     4.0273   4.0379   4.0529   4.3224   4.3244   4.3603   4.3607   4.4756
     4.4781   4.5405   4.5435   4.8144   5.1164   5.4245   5.4251   5.5069
     5.5159   5.6310   5.6317   5.7030   5.7036   5.7202   5.7205   5.8089
     5.8324   5.8856   6.0857   6.1194   6.1207   6.1294   6.1342   6.1346
     6.1481   6.1544   6.3018   6.3092   6.3900   6.4214   6.4344   6.4542

     the Fermi energy is     0.8746 ev

!    total energy              =   -7379.97834400 Ry
     Harris-Foulkes estimate   =   -7379.97834400 Ry
     estimated scf accuracy    <          1.7E-09 Ry

     The total energy is the sum of the following terms:

     one-electron contribution =  -48153.62646587 Ry
     hartree contribution      =   24624.19144845 Ry
     xc contribution           =   -3556.23784211 Ry
     ewald contribution        =   19705.69348598 Ry
     smearing contrib. (-TS)   =       0.00102956 Ry

     convergence has been achieved in  28 iterations

     Writing output data file 6600240.save

     init_run     :    111.75s CPU    118.25s WALL (       1 calls)
     electrons    :   7484.68s CPU   7850.89s WALL (       1 calls)

     Called by init_run:
     wfcinit      :     78.83s CPU     84.90s WALL (       1 calls)
     potinit      :      3.57s CPU      3.66s WALL (       1 calls)

     Called by electrons:
     c_bands      :   5781.31s CPU   6076.88s WALL (      29 calls)
     sum_band     :   1140.73s CPU   1204.85s WALL (      29 calls)
     v_of_rho     :     18.48s CPU     19.90s WALL (      29 calls)
     newd         :    555.07s CPU    559.47s WALL (      29 calls)
     mix_rho      :      3.66s CPU      4.01s WALL (      29 calls)

     Called by c_bands:
     init_us_2    :      8.71s CPU      8.97s WALL (     354 calls)
     cegterg      :   5720.16s CPU   6014.92s WALL (     174 calls)

     Called by *egterg:
     h_psi        :   2389.84s CPU   2647.95s WALL (     979 calls)
     s_psi        :    359.76s CPU    361.42s WALL (     979 calls)
     g_psi        :      4.48s CPU      4.56s WALL (     799 calls)
     cdiaghg      :   1710.24s CPU   1713.84s WALL (     967 calls)

     Called by h_psi:
     add_vuspsi   :    360.00s CPU    361.57s WALL (     979 calls)

     General routines
     calbec       :    535.30s CPU    536.61s WALL (    1153 calls)
     fft          :    311.02s CPU    313.76s WALL (     464 calls)
     ffts         :      1.73s CPU      1.90s WALL (      58 calls)
     fftw         :   1944.45s CPU   2238.54s WALL (  463494 calls)
     interpolate  :      4.53s CPU      5.06s WALL (      58 calls)
     davcio       :      0.01s CPU      0.11s WALL (       6 calls)

     Parallel routines
     fft_scatter  :   1691.69s CPU   1949.97s WALL (  464016 calls)

     PWSCF        :     2h 6m CPU        2h13m WALL


   This run was terminated on:   5:12: 1   9Aug2015            

=------------------------------------------------------------------------------=
   JOB DONE.
=------------------------------------------------------------------------------=
