Setting SGE environment for SCC

     Program PWSCF v.5.1.2 starts on  9Aug2015 at  1:48: 6 

     This program is part of the open-source Quantum ESPRESSO suite
     for quantum simulation of materials; please cite
         "P. Giannozzi et al., J. Phys.:Condens. Matter 21 395502 (2009);
          URL http://www.quantum-espresso.org", 
     in publications or presentations arising from this work. More details at
     http://www.quantum-espresso.org/quote

     Parallel version (MPI), running on    32 processors
     R & G space division:  proc/nbgrp/npool/nimage =      32
     Reading input from top.O1.Au62.d.2.6.phi.45.psi.180.in
Warning: card &IONS ignored
Warning: card / ignored
Warning: card &CELL ignored
Warning: card / ignored

     Current dimensions of program PWSCF are:
     Max number of different atomic species (ntypx) = 10
     Max number of k-points (npk) =  40000
     Max angular momentum in pseudopotentials (lmaxx) =  3

     Subspace diagonalization in iterative solution of the eigenvalue problem:
     a serial algorithm will be used


     Parallelization info
     --------------------
     sticks:   dense  smooth     PW     G-vecs:    dense   smooth      PW
     Min         578     289     74               118518    41891    5486
     Max         579     290     75               118533    41932    5497
     Sum       18505    9265   2385              3792731  1341081  175711


     Title: 
     top.O1.Au62.d.2.6.phi.45.psi.180                                           


     bravais-lattice index     =            8
     lattice parameter (alat)  =      24.1233  a.u.
     unit-cell volume          =   28076.2361 (a.u.)^3
     number of atoms/cell      =           75
     number of atomic types    =            3
     number of electrons       =       800.00
     number of Kohn-Sham states=          480
     kinetic-energy cutoff     =      50.0000  Ry
     charge density cutoff     =     400.0000  Ry
     convergence threshold     =      1.0E-08
     mixing beta               =       0.7000
     number of iterations used =            8  plain     mixing
     Exchange-correlation      =  SLA  PW   PBE  PBE ( 1  4  3  4 0 0)

     celldm(1)=  24.123277  celldm(2)=   1.000000  celldm(3)=   2.000000
     celldm(4)=   0.000000  celldm(5)=   0.000000  celldm(6)=   0.000000

     crystal axes: (cart. coord. in units of alat)
               a(1) = (   1.000000   0.000000   0.000000 )  
               a(2) = (   0.000000   1.000000   0.000000 )  
               a(3) = (   0.000000   0.000000   2.000000 )  

     reciprocal axes: (cart. coord. in units 2 pi/alat)
               b(1) = (  1.000000  0.000000  0.000000 )  
               b(2) = (  0.000000  1.000000  0.000000 )  
               b(3) = (  0.000000  0.000000  0.500000 )  


     PseudoPot. # 1 for Au read from file:
     /home/scc/andrejb/qe/pseudo/Au.pbe-nd-van.UPF
     MD5 check sum: 458681b50f36d87ef23c61b04bba420a
     Pseudo is Ultrasoft + core correction, Zval = 11.0
     Generated by new atomic code, or converted to UPF format
     Using radial grid of  985 points,  3 beta functions with: 
                l(1) =   1
                l(2) =   2
                l(3) =   2
     Q(r) pseudized with  8 coefficients,  rinner =    1.100   1.100   1.100
                                                       1.100   1.100

     PseudoPot. # 2 for H  read from file:
     /home/scc/andrejb/qe/pseudo/H.pbe-van_ak.UPF
     MD5 check sum: 403db7282739603aa925980fa9b8608d
     Pseudo is Ultrasoft, Zval =  1.0
     Generated by new atomic code, or converted to UPF format
     Using radial grid of  615 points,  1 beta functions with: 
                l(1) =   0
     Q(r) pseudized with  8 coefficients,  rinner =    0.800

     PseudoPot. # 3 for O  read from file:
     /home/scc/andrejb/qe/pseudo/O.pbe-van_ak.UPF
     MD5 check sum: 4b8c549914a63cae506c6ff22b5af4fe
     Pseudo is Ultrasoft, Zval =  6.0
     Generated by new atomic code, or converted to UPF format
     Using radial grid of  737 points,  4 beta functions with: 
                l(1) =   0
                l(2) =   0
                l(3) =   1
                l(4) =   1
     Q(r) pseudized with  8 coefficients,  rinner =    0.800   0.800   0.800


     atomic species   valence    mass     pseudopotential
        Au            11.00   196.96657     Au( 1.00)
        H              1.00     1.01000     H ( 1.00)
        O              6.00    16.00000     O ( 1.00)

     No symmetry found



   Cartesian axes

     site n.     atom                  positions (alat units)
         1           O   tau(   1) = (   0.4998324   0.3332216   0.7029927  )
         2           H   tau(   2) = (   0.4942419   0.3942089   0.6574988  )
         3           H   tau(   3) = (   0.5052408   0.2740707   0.6551350  )
         4           Au  tau(   4) = (   0.0000000   0.0000000   0.0000000  )
         5           Au  tau(   5) = (   0.3332217   0.0000000   0.0000000  )
         6           Au  tau(   6) = (   0.6664434   0.0000000   0.0000000  )
         7           Au  tau(   7) = (   0.1666109   0.1666109   0.0000000  )
         8           Au  tau(   8) = (   0.4998326   0.1666109   0.0000000  )
         9           Au  tau(   9) = (   0.8330542   0.1666109   0.0000000  )
        10           Au  tau(  10) = (   0.0000000   0.3332217   0.0000000  )
        11           Au  tau(  11) = (   0.3332217   0.3332217   0.0000000  )
        12           Au  tau(  12) = (   0.6664434   0.3332217   0.0000000  )
        13           Au  tau(  13) = (   0.1666109   0.4998326   0.0000000  )
        14           Au  tau(  14) = (   0.4998326   0.4998326   0.0000000  )
        15           Au  tau(  15) = (   0.8330542   0.4998326   0.0000000  )
        16           Au  tau(  16) = (   0.0000000   0.6664434   0.0000000  )
        17           Au  tau(  17) = (   0.3332217   0.6664434   0.0000000  )
        18           Au  tau(  18) = (   0.6664434   0.6664434   0.0000000  )
        19           Au  tau(  19) = (   0.1666109   0.8330542   0.0000000  )
        20           Au  tau(  20) = (   0.4998326   0.8330542   0.0000000  )
        21           Au  tau(  21) = (   0.8330542   0.8330542   0.0000000  )
        22           Au  tau(  22) = (   0.1666109   0.0000000   0.1666109  )
        23           Au  tau(  23) = (   0.4998326   0.0000000   0.1666109  )
        24           Au  tau(  24) = (   0.8330542   0.0000000   0.1666109  )
        25           Au  tau(  25) = (   0.0000000   0.1666109   0.1666109  )
        26           Au  tau(  26) = (   0.3332217   0.1666109   0.1666109  )
        27           Au  tau(  27) = (   0.6664434   0.1666109   0.1666109  )
        28           Au  tau(  28) = (   0.1666109   0.3332217   0.1666109  )
        29           Au  tau(  29) = (   0.4998326   0.3332217   0.1666109  )
        30           Au  tau(  30) = (   0.8330542   0.3332217   0.1666109  )
        31           Au  tau(  31) = (   0.0000000   0.4998326   0.1666109  )
        32           Au  tau(  32) = (   0.3332217   0.4998326   0.1666109  )
        33           Au  tau(  33) = (   0.6664434   0.4998326   0.1666109  )
        34           Au  tau(  34) = (   0.1666109   0.6664434   0.1666109  )
        35           Au  tau(  35) = (   0.4998326   0.6664434   0.1666109  )
        36           Au  tau(  36) = (   0.8330542   0.6664434   0.1666109  )
        37           Au  tau(  37) = (   0.0000000   0.8330542   0.1666109  )
        38           Au  tau(  38) = (   0.3332217   0.8330542   0.1666109  )
        39           Au  tau(  39) = (   0.6664434   0.8330542   0.1666109  )
        40           Au  tau(  40) = (  -0.0000182  -0.0000182   0.3335478  )
        41           Au  tau(  41) = (   0.3332215  -0.0000181   0.3335473  )
        42           Au  tau(  42) = (   0.6664447  -0.0000183   0.3335481  )
        43           Au  tau(  43) = (  -0.0000181   0.3332215   0.3335473  )
        44           Au  tau(  44) = (   0.3332215   0.3332215   0.3335468  )
        45           Au  tau(  45) = (   0.6664445   0.3332215   0.3335477  )
        46           Au  tau(  46) = (  -0.0000183   0.6664447   0.3335481  )
        47           Au  tau(  47) = (   0.3332215   0.6664445   0.3335477  )
        48           Au  tau(  48) = (   0.6664446   0.6664446   0.3335486  )
        49           Au  tau(  49) = (   0.1666097   0.1666097   0.3335483  )
        50           Au  tau(  50) = (   0.4998320   0.1666098   0.3335477  )
        51           Au  tau(  51) = (   0.8330732   0.1666096   0.3335480  )
        52           Au  tau(  52) = (   0.1666098   0.4998320   0.3335477  )
        53           Au  tau(  53) = (   0.4998322   0.4998322   0.3335470  )
        54           Au  tau(  54) = (   0.8330731   0.4998322   0.3335474  )
        55           Au  tau(  55) = (   0.1666096   0.8330732   0.3335480  )
        56           Au  tau(  56) = (   0.4998322   0.8330731   0.3335474  )
        57           Au  tau(  57) = (   0.8330731   0.8330731   0.3335478  )
        58           Au  tau(  58) = (   0.1666104  -0.0000111   0.4993095  )
        59           Au  tau(  59) = (   0.4998323  -0.0000112   0.4993099  )
        60           Au  tau(  60) = (   0.8330660  -0.0000111   0.4993009  )
        61           Au  tau(  61) = (  -0.0000111   0.1666104   0.4993095  )
        62           Au  tau(  62) = (   0.3332213   0.1666106   0.4993185  )
        63           Au  tau(  63) = (   0.6664437   0.1666106   0.4993187  )
        64           Au  tau(  64) = (   0.1666106   0.3332213   0.4993185  )
        65           Au  tau(  65) = (   0.4998324   0.3332216   0.4993185  )
        66           Au  tau(  66) = (   0.8330658   0.3332215   0.4993102  )
        67           Au  tau(  67) = (  -0.0000112   0.4998323   0.4993099  )
        68           Au  tau(  68) = (   0.3332216   0.4998324   0.4993185  )
        69           Au  tau(  69) = (   0.6664437   0.4998325   0.4993187  )
        70           Au  tau(  70) = (   0.1666106   0.6664437   0.4993187  )
        71           Au  tau(  71) = (   0.4998325   0.6664437   0.4993187  )
        72           Au  tau(  72) = (   0.8330658   0.6664438   0.4993102  )
        73           Au  tau(  73) = (  -0.0000111   0.8330660   0.4993009  )
        74           Au  tau(  74) = (   0.3332215   0.8330658   0.4993102  )
        75           Au  tau(  75) = (   0.6664438   0.8330658   0.4993102  )

     number of k points=     6  Marzari-Vanderbilt smearing, width (Ry)=  0.0200
                       cart. coord. in units 2pi/alat
        k(    1) = (   0.2500000   0.2500000   0.0833333), wk =   0.3333333
        k(    2) = (   0.2500000   0.2500000  -0.2500000), wk =   0.3333333
        k(    3) = (  -0.2500000  -0.2500000   0.0833333), wk =   0.3333333
        k(    4) = (  -0.2500000   0.2500000  -0.0833333), wk =   0.3333333
        k(    5) = (   0.2500000  -0.2500000  -0.0833333), wk =   0.3333333
        k(    6) = (  -0.2500000   0.2500000   0.2500000), wk =   0.3333333

     Dense  grid:  3792731 G-vectors     FFT dimensions: ( 160, 160, 320)

     Smooth grid:  1341081 G-vectors     FFT dimensions: ( 120, 120, 225)

     Largest allocated arrays     est. size (Mb)     dimensions
        Kohn-Sham Wavefunctions        38.58 Mb     (    5267,  480)
        NL pseudopotentials            76.03 Mb     (    5267,  946)
        Each V/rho on FFT grid          3.91 Mb     (  256000)
        Each G-vector array             0.90 Mb     (  118520)
        G-vector shells                 0.08 Mb     (   10286)
     Largest temporary arrays     est. size (Mb)     dimensions
        Auxiliary wavefunctions       154.31 Mb     (    5267, 1920)
        Each subspace H/S matrix       56.25 Mb     (    1920, 1920)
        Each <psi_i|beta_j> matrix      6.93 Mb     (     946,  480)
        Arrays for rho mixing          31.25 Mb     (  256000,    8)

     Initial potential from superposition of free atoms
     Check: negative starting charge=   -1.945213

     starting charge  799.16392, renormalised to  800.00000

     negative rho (up, down):  1.947E+00 0.000E+00
     Starting wfc are  654 randomized atomic wfcs

     total cpu time spent up to now is      116.3 secs

     Self-consistent Calculation

     iteration #  1     ecut=    50.00 Ry     beta=0.70
     Davidson diagonalization with overlap
     ethr =  1.00E-02,  avg # of iterations =  3.0

     Threshold (ethr) on eigenvalues was too large:
     Diagonalizing with lowered threshold

     Davidson diagonalization with overlap
     ethr =  4.76E-04,  avg # of iterations =  2.0

     negative rho (up, down):  1.932E+00 0.000E+00

     total cpu time spent up to now is      577.5 secs

     total energy              =   -7377.48285513 Ry
     Harris-Foulkes estimate   =   -7380.89113958 Ry
     estimated scf accuracy    <       4.33737871 Ry

     iteration #  2     ecut=    50.00 Ry     beta=0.70
     Davidson diagonalization with overlap
     ethr =  5.42E-04,  avg # of iterations = 11.3

     negative rho (up, down):  1.930E+00 0.000E+00

     total cpu time spent up to now is     1309.6 secs

     total energy              =   -7369.44277691 Ry
     Harris-Foulkes estimate   =   -7387.55358328 Ry
     estimated scf accuracy    <      92.02466463 Ry

     iteration #  3     ecut=    50.00 Ry     beta=0.70
     Davidson diagonalization with overlap
     ethr =  5.42E-04,  avg # of iterations =  6.0

     negative rho (up, down):  1.946E+00 0.000E+00

     total cpu time spent up to now is     1776.6 secs

     total energy              =   -7378.51543644 Ry
     Harris-Foulkes estimate   =   -7380.68072229 Ry
     estimated scf accuracy    <       8.65114591 Ry

     iteration #  4     ecut=    50.00 Ry     beta=0.70
     Davidson diagonalization with overlap
     ethr =  5.42E-04,  avg # of iterations =  4.7

     negative rho (up, down):  1.950E+00 0.000E+00

     total cpu time spent up to now is     2047.6 secs

     total energy              =   -7379.28657622 Ry
     Harris-Foulkes estimate   =   -7380.50805906 Ry
     estimated scf accuracy    <       6.60875827 Ry

     iteration #  5     ecut=    50.00 Ry     beta=0.70
     Davidson diagonalization with overlap
     ethr =  5.42E-04,  avg # of iterations =  5.3

     negative rho (up, down):  1.958E+00 0.000E+00

     total cpu time spent up to now is     2322.0 secs

     total energy              =   -7379.61403243 Ry
     Harris-Foulkes estimate   =   -7380.37215249 Ry
     estimated scf accuracy    <       5.81501503 Ry

     iteration #  6     ecut=    50.00 Ry     beta=0.70
     Davidson diagonalization with overlap
     ethr =  5.42E-04,  avg # of iterations =  3.0

     negative rho (up, down):  1.962E+00 0.000E+00

     total cpu time spent up to now is     2563.1 secs

     total energy              =   -7379.92069263 Ry
     Harris-Foulkes estimate   =   -7380.01374952 Ry
     estimated scf accuracy    <       0.36550342 Ry

     iteration #  7     ecut=    50.00 Ry     beta=0.70
     Davidson diagonalization with overlap
     ethr =  4.57E-05,  avg # of iterations =  6.3

     negative rho (up, down):  1.966E+00 0.000E+00

     total cpu time spent up to now is     2860.7 secs

     total energy              =   -7379.94219188 Ry
     Harris-Foulkes estimate   =   -7379.99769255 Ry
     estimated scf accuracy    <       0.30751735 Ry

     iteration #  8     ecut=    50.00 Ry     beta=0.70
     Davidson diagonalization with overlap
     ethr =  3.84E-05,  avg # of iterations =  3.0

     negative rho (up, down):  1.968E+00 0.000E+00

     total cpu time spent up to now is     3101.1 secs

     total energy              =   -7379.95266382 Ry
     Harris-Foulkes estimate   =   -7379.97580648 Ry
     estimated scf accuracy    <       0.10191708 Ry

     iteration #  9     ecut=    50.00 Ry     beta=0.70
     Davidson diagonalization with overlap
     ethr =  1.27E-05,  avg # of iterations =  7.3

     negative rho (up, down):  1.969E+00 0.000E+00

     total cpu time spent up to now is     3397.6 secs

     total energy              =   -7379.95323846 Ry
     Harris-Foulkes estimate   =   -7379.96530169 Ry
     estimated scf accuracy    <       0.04144174 Ry

     iteration # 10     ecut=    50.00 Ry     beta=0.70
     Davidson diagonalization with overlap
     c_bands:  1 eigenvalues not converged
     c_bands:  1 eigenvalues not converged
     ethr =  5.18E-06,  avg # of iterations = 14.0

     negative rho (up, down):  1.969E+00 0.000E+00

     total cpu time spent up to now is     3762.0 secs

     total energy              =   -7379.95486188 Ry
     Harris-Foulkes estimate   =   -7379.95860641 Ry
     estimated scf accuracy    <       0.01067852 Ry

     iteration # 11     ecut=    50.00 Ry     beta=0.70
     Davidson diagonalization with overlap
     ethr =  1.33E-06,  avg # of iterations =  3.7

     negative rho (up, down):  1.970E+00 0.000E+00

     total cpu time spent up to now is     4011.6 secs

     total energy              =   -7379.95546106 Ry
     Harris-Foulkes estimate   =   -7379.95697917 Ry
     estimated scf accuracy    <       0.00440954 Ry

     iteration # 12     ecut=    50.00 Ry     beta=0.70
     Davidson diagonalization with overlap
     ethr =  5.51E-07,  avg # of iterations =  2.0

     negative rho (up, down):  1.971E+00 0.000E+00

     total cpu time spent up to now is     4237.6 secs

     total energy              =   -7379.95544331 Ry
     Harris-Foulkes estimate   =   -7379.95631607 Ry
     estimated scf accuracy    <       0.00215709 Ry

     iteration # 13     ecut=    50.00 Ry     beta=0.70
     Davidson diagonalization with overlap
     ethr =  2.70E-07,  avg # of iterations =  4.0

     negative rho (up, down):  1.971E+00 0.000E+00

     total cpu time spent up to now is     4556.3 secs

     total energy              =   -7379.95479096 Ry
     Harris-Foulkes estimate   =   -7379.95731453 Ry
     estimated scf accuracy    <       0.01352704 Ry

     iteration # 14     ecut=    50.00 Ry     beta=0.70
     Davidson diagonalization with overlap
     ethr =  2.70E-07,  avg # of iterations =  3.0

     negative rho (up, down):  1.970E+00 0.000E+00

     total cpu time spent up to now is     4828.9 secs

     total energy              =   -7379.95596742 Ry
     Harris-Foulkes estimate   =   -7379.95604750 Ry
     estimated scf accuracy    <       0.00019922 Ry

     iteration # 15     ecut=    50.00 Ry     beta=0.70
     Davidson diagonalization with overlap
     ethr =  2.49E-08,  avg # of iterations =  3.0

     negative rho (up, down):  1.970E+00 0.000E+00

     total cpu time spent up to now is     5113.4 secs

     total energy              =   -7379.95591656 Ry
     Harris-Foulkes estimate   =   -7379.95610961 Ry
     estimated scf accuracy    <       0.00117428 Ry

     iteration # 16     ecut=    50.00 Ry     beta=0.70
     Davidson diagonalization with overlap
     ethr =  2.49E-08,  avg # of iterations =  2.0

     negative rho (up, down):  1.970E+00 0.000E+00

     total cpu time spent up to now is     5345.9 secs

     total energy              =   -7379.95593289 Ry
     Harris-Foulkes estimate   =   -7379.95612040 Ry
     estimated scf accuracy    <       0.00146208 Ry

     iteration # 17     ecut=    50.00 Ry     beta=0.70
     Davidson diagonalization with overlap
     ethr =  2.49E-08,  avg # of iterations =  2.0

     negative rho (up, down):  1.970E+00 0.000E+00

     total cpu time spent up to now is     5576.7 secs

     total energy              =   -7379.95602307 Ry
     Harris-Foulkes estimate   =   -7379.95602922 Ry
     estimated scf accuracy    <       0.00001996 Ry

     iteration # 18     ecut=    50.00 Ry     beta=0.70
     Davidson diagonalization with overlap
     ethr =  2.50E-09,  avg # of iterations =  2.0

     negative rho (up, down):  1.970E+00 0.000E+00

     total cpu time spent up to now is     5811.2 secs

     total energy              =   -7379.95602489 Ry
     Harris-Foulkes estimate   =   -7379.95602892 Ry
     estimated scf accuracy    <       0.00001607 Ry

     iteration # 19     ecut=    50.00 Ry     beta=0.70
     Davidson diagonalization with overlap
     ethr =  2.01E-09,  avg # of iterations =  2.0

     negative rho (up, down):  1.970E+00 0.000E+00

     total cpu time spent up to now is     6030.0 secs

     total energy              =   -7379.95602657 Ry
     Harris-Foulkes estimate   =   -7379.95602781 Ry
     estimated scf accuracy    <       0.00000470 Ry

     iteration # 20     ecut=    50.00 Ry     beta=0.70
     Davidson diagonalization with overlap
     ethr =  5.88E-10,  avg # of iterations =  2.0

     negative rho (up, down):  1.970E+00 0.000E+00

     total cpu time spent up to now is     6252.3 secs

     total energy              =   -7379.95602700 Ry
     Harris-Foulkes estimate   =   -7379.95602750 Ry
     estimated scf accuracy    <       0.00000176 Ry

     iteration # 21     ecut=    50.00 Ry     beta=0.70
     Davidson diagonalization with overlap
     ethr =  2.20E-10,  avg # of iterations =  2.0

     negative rho (up, down):  1.970E+00 0.000E+00

     total cpu time spent up to now is     6476.1 secs

     total energy              =   -7379.95602714 Ry
     Harris-Foulkes estimate   =   -7379.95602743 Ry
     estimated scf accuracy    <       0.00000116 Ry

     iteration # 22     ecut=    50.00 Ry     beta=0.70
     Davidson diagonalization with overlap
     ethr =  1.46E-10,  avg # of iterations =  2.0

     negative rho (up, down):  1.970E+00 0.000E+00

     total cpu time spent up to now is     6692.6 secs

     total energy              =   -7379.95602726 Ry
     Harris-Foulkes estimate   =   -7379.95602733 Ry
     estimated scf accuracy    <       0.00000025 Ry

     iteration # 23     ecut=    50.00 Ry     beta=0.70
     Davidson diagonalization with overlap
     ethr =  3.11E-11,  avg # of iterations =  2.0

     negative rho (up, down):  1.970E+00 0.000E+00

     total cpu time spent up to now is     6913.6 secs

     total energy              =   -7379.95602726 Ry
     Harris-Foulkes estimate   =   -7379.95602733 Ry
     estimated scf accuracy    <       0.00000027 Ry

     iteration # 24     ecut=    50.00 Ry     beta=0.70
     Davidson diagonalization with overlap
     ethr =  3.11E-11,  avg # of iterations =  2.0

     negative rho (up, down):  1.970E+00 0.000E+00

     total cpu time spent up to now is     7129.6 secs

     total energy              =   -7379.95602729 Ry
     Harris-Foulkes estimate   =   -7379.95602731 Ry
     estimated scf accuracy    <       0.00000008 Ry

     iteration # 25     ecut=    50.00 Ry     beta=0.70
     Davidson diagonalization with overlap
     ethr =  1.06E-11,  avg # of iterations =  2.0

     negative rho (up, down):  1.970E+00 0.000E+00

     total cpu time spent up to now is     7348.5 secs

     total energy              =   -7379.95602730 Ry
     Harris-Foulkes estimate   =   -7379.95602731 Ry
     estimated scf accuracy    <       0.00000003 Ry

     iteration # 26     ecut=    50.00 Ry     beta=0.70
     Davidson diagonalization with overlap
     ethr =  3.67E-12,  avg # of iterations =  2.0

     negative rho (up, down):  1.970E+00 0.000E+00

     total cpu time spent up to now is     7567.2 secs

     total energy              =   -7379.95602730 Ry
     Harris-Foulkes estimate   =   -7379.95602730 Ry
     estimated scf accuracy    <       0.00000002 Ry

     iteration # 27     ecut=    50.00 Ry     beta=0.70
     Davidson diagonalization with overlap
     ethr =  2.08E-12,  avg # of iterations =  2.0

     negative rho (up, down):  1.970E+00 0.000E+00

     total cpu time spent up to now is     7796.2 secs

     total energy              =   -7379.95602730 Ry
     Harris-Foulkes estimate   =   -7379.95602731 Ry
     estimated scf accuracy    <       0.00000006 Ry

     iteration # 28     ecut=    50.00 Ry     beta=0.70
     Davidson diagonalization with overlap
     ethr =  2.08E-12,  avg # of iterations =  2.0

     negative rho (up, down):  1.970E+00 0.000E+00

     total cpu time spent up to now is     8013.7 secs

     End of self-consistent calculation

          k = 0.2500 0.2500 0.0833 (167653 PWs)   bands (ev):

   -19.6136  -7.4400  -6.9172  -6.3896  -6.3843  -5.9488  -5.5559  -5.4505
    -5.4440  -5.2263  -5.2237  -5.1516  -5.1254  -5.0006  -4.9849  -4.8792
    -4.7913  -4.7882  -4.7706  -4.7608  -4.6082  -4.5835  -4.5793  -4.5785
    -4.5505  -4.5479  -4.5424  -4.5249  -4.4908  -4.4889  -4.4874  -4.4246
    -4.4157  -4.3956  -4.3607  -4.3372  -4.3352  -4.3200  -4.3014  -4.2978
    -4.2852  -4.2798  -4.2610  -4.2510  -4.2241  -4.1937  -4.1911  -4.1856
    -4.1851  -4.1827  -4.1544  -4.1240  -4.1128  -4.0960  -4.0947  -4.0919
    -4.0903  -4.0832  -4.0684  -4.0507  -4.0503  -3.9903  -3.9747  -3.9601
    -3.9278  -3.9246  -3.9211  -3.9196  -3.8976  -3.8909  -3.8875  -3.8386
    -3.8336  -3.8313  -3.8295  -3.7456  -3.7448  -3.7225  -3.7213  -3.7003
    -3.6857  -3.6678  -3.6508  -3.6400  -3.6075  -3.6020  -3.6013  -3.5949
    -3.5808  -3.5756  -3.5072  -3.4945  -3.4940  -3.4743  -3.4698  -3.4672
    -3.4515  -3.4478  -3.4432  -3.4408  -3.4011  -3.3916  -3.3838  -3.3779
    -3.3458  -3.3383  -3.3186  -3.2964  -3.2918  -3.2492  -3.2452  -3.2143
    -3.1875  -3.1853  -3.1840  -3.1825  -3.1785  -3.1772  -3.1613  -3.1407
    -3.1078  -3.1042  -3.0823  -3.0594  -3.0566  -3.0543  -3.0506  -3.0487
    -3.0474  -3.0469  -3.0161  -3.0128  -3.0089  -3.0069  -3.0015  -3.0002
    -2.9443  -2.9427  -2.9373  -2.9333  -2.9158  -2.9144  -2.9082  -2.8168
    -2.8132  -2.8109  -2.8071  -2.7972  -2.7946  -2.7922  -2.7887  -2.7814
    -2.7794  -2.7740  -2.7654  -2.7607  -2.7551  -2.7524  -2.7467  -2.7449
    -2.7375  -2.7182  -2.7077  -2.7043  -2.6914  -2.6901  -2.6763  -2.6745
    -2.6640  -2.6629  -2.6427  -2.6397  -2.6343  -2.6309  -2.6198  -2.5939
    -2.5916  -2.5887  -2.5339  -2.5257  -2.5223  -2.5115  -2.5037  -2.4944
    -2.4861  -2.4799  -2.4707  -2.4657  -2.4607  -2.4540  -2.4465  -2.4331
    -2.4288  -2.4112  -2.4058  -2.3961  -2.3939  -2.3828  -2.3821  -2.3704
    -2.3519  -2.3271  -2.2847  -2.2680  -2.2463  -2.2417  -2.2329  -2.2297
    -2.1937  -2.1788  -2.1766  -2.1505  -2.1408  -2.1360  -2.1141  -2.1031
    -2.0957  -2.0854  -2.0753  -2.0695  -2.0510  -2.0456  -2.0400  -2.0304
    -2.0292  -2.0271  -2.0233  -2.0003  -1.9955  -1.9933  -1.9898  -1.9888
    -1.9864  -1.9851  -1.9744  -1.9591  -1.9536  -1.9502  -1.9485  -1.9359
    -1.9322  -1.9298  -1.9266  -1.9210  -1.9187  -1.8835  -1.8796  -1.8387
    -1.8306  -1.8213  -1.8117  -1.7812  -1.7777  -1.7735  -1.7648  -1.7604
    -1.7527  -1.7488  -1.7440  -1.7377  -1.7319  -1.7133  -1.7070  -1.6744
    -1.6699  -1.6560  -1.6430  -1.6362  -1.6084  -1.5926  -1.5818  -1.5464
    -1.5363  -1.5203  -1.5053  -1.4968  -1.4960  -1.4940  -1.4842  -1.4759
    -1.4749  -1.4697  -1.4686  -1.4679  -1.4657  -1.4646  -1.4525  -1.4439
    -1.4351  -1.4213  -1.4104  -1.4069  -1.4006  -1.3825  -1.3763  -1.3760
    -1.3751  -1.3641  -1.3473  -1.3295  -1.3208  -1.3102  -1.3049  -1.2937
    -1.2789  -1.2734  -1.2675  -1.2545  -1.2466  -1.2418  -1.2297  -1.2039
    -1.1985  -1.1930  -1.1888  -1.1881  -1.1770  -1.1658  -1.1614  -1.1536
    -1.1407  -1.1388  -1.1338  -1.1294  -1.1259  -1.1198  -1.1175  -1.1079
    -1.1001  -1.0988  -1.0964  -1.0913  -1.0776  -1.0741  -1.0713  -1.0337
    -1.0269  -1.0250  -1.0230  -1.0195  -1.0155  -0.9893  -0.9826  -0.9787
    -0.9597  -0.9563  -0.9501  -0.9481  -0.9450  -0.9345  -0.9298  -0.9010
    -0.8938  -0.8890  -0.8855  -0.8695  -0.8683  -0.8530  -0.8326  -0.8202
    -0.8070  -0.8013  -0.7693  -0.7659  -0.7622  -0.7587  -0.7570  -0.7540
    -0.7525  -0.7516  -0.7473  -0.7455  -0.7160  -0.7148  -0.7108  -0.7097
    -0.7079  -0.7002  -0.6952  -0.6785  -0.6690  -0.4185  -0.3948  -0.3513
    -0.3313  -0.3211  -0.2638  -0.1139  -0.1111  -0.0653   0.2028   0.2126
     0.5460   0.5599   0.5860   0.5889   0.6375   0.6395   0.7992   0.8140
     0.9235   0.9294   1.0544   1.5383   1.5690   1.5849   1.6183   1.6203
     1.7603   1.7709   1.8141   1.8233   1.9940   1.9963   2.2878   2.3094
     2.3118   2.3294   2.7666   2.7719   2.7822   2.7883   2.8017   2.8057
     2.8668   2.8692   3.0313   3.1495   3.1578   3.3383   3.3425   3.4416
     3.5157   3.5179   3.8164   3.8223   3.8721   3.8747   3.8784   4.0114
     4.0221   4.0458   4.0554   4.3117   4.3176   4.3543   4.3590   4.4628
     4.4754   4.5394   4.5426   4.8289   5.4115   5.4186   5.4997   5.5139
     5.6231   5.6261   5.6858   5.7014   5.7066   5.7148   5.8192   5.8222
     5.8373   5.9990   6.0791   6.1105   6.1158   6.1312   6.1313   6.1427
     6.2145   6.2281   6.3189   6.3226   6.4313   6.4381   6.4554   6.4587

          k = 0.2500 0.2500-0.2500 (167588 PWs)   bands (ev):

   -19.6136  -7.4400  -6.9172  -6.3896  -6.3843  -5.9488  -5.5559  -5.4505
    -5.4440  -5.2263  -5.2237  -5.1516  -5.1254  -5.0006  -4.9849  -4.8792
    -4.7913  -4.7882  -4.7706  -4.7608  -4.6082  -4.5835  -4.5793  -4.5785
    -4.5505  -4.5479  -4.5424  -4.5249  -4.4908  -4.4889  -4.4874  -4.4246
    -4.4157  -4.3956  -4.3607  -4.3372  -4.3352  -4.3200  -4.3014  -4.2977
    -4.2852  -4.2798  -4.2610  -4.2510  -4.2241  -4.1937  -4.1911  -4.1856
    -4.1851  -4.1827  -4.1544  -4.1240  -4.1128  -4.0960  -4.0947  -4.0919
    -4.0903  -4.0833  -4.0684  -4.0507  -4.0503  -3.9903  -3.9747  -3.9601
    -3.9278  -3.9246  -3.9211  -3.9196  -3.8976  -3.8909  -3.8875  -3.8386
    -3.8336  -3.8313  -3.8295  -3.7456  -3.7448  -3.7225  -3.7213  -3.7003
    -3.6857  -3.6678  -3.6508  -3.6400  -3.6075  -3.6020  -3.6013  -3.5949
    -3.5808  -3.5756  -3.5072  -3.4945  -3.4940  -3.4743  -3.4698  -3.4671
    -3.4515  -3.4478  -3.4432  -3.4408  -3.4011  -3.3916  -3.3838  -3.3779
    -3.3458  -3.3383  -3.3187  -3.2964  -3.2918  -3.2492  -3.2452  -3.2143
    -3.1875  -3.1853  -3.1840  -3.1825  -3.1785  -3.1771  -3.1613  -3.1407
    -3.1078  -3.1042  -3.0823  -3.0594  -3.0566  -3.0543  -3.0506  -3.0487
    -3.0474  -3.0469  -3.0160  -3.0128  -3.0089  -3.0069  -3.0015  -3.0002
    -2.9443  -2.9427  -2.9373  -2.9333  -2.9158  -2.9144  -2.9082  -2.8168
    -2.8132  -2.8109  -2.8071  -2.7972  -2.7946  -2.7922  -2.7887  -2.7814
    -2.7794  -2.7740  -2.7654  -2.7607  -2.7551  -2.7524  -2.7467  -2.7449
    -2.7374  -2.7182  -2.7077  -2.7043  -2.6914  -2.6900  -2.6763  -2.6745
    -2.6640  -2.6629  -2.6427  -2.6397  -2.6343  -2.6309  -2.6198  -2.5939
    -2.5916  -2.5887  -2.5339  -2.5257  -2.5223  -2.5115  -2.5037  -2.4944
    -2.4861  -2.4799  -2.4707  -2.4657  -2.4607  -2.4540  -2.4465  -2.4331
    -2.4288  -2.4112  -2.4058  -2.3961  -2.3939  -2.3829  -2.3822  -2.3704
    -2.3518  -2.3271  -2.2847  -2.2680  -2.2463  -2.2417  -2.2329  -2.2297
    -2.1937  -2.1788  -2.1766  -2.1505  -2.1408  -2.1360  -2.1141  -2.1031
    -2.0957  -2.0854  -2.0753  -2.0695  -2.0510  -2.0456  -2.0400  -2.0304
    -2.0292  -2.0271  -2.0233  -2.0003  -1.9955  -1.9933  -1.9898  -1.9888
    -1.9864  -1.9851  -1.9744  -1.9591  -1.9536  -1.9502  -1.9485  -1.9359
    -1.9322  -1.9298  -1.9266  -1.9210  -1.9187  -1.8835  -1.8796  -1.8388
    -1.8306  -1.8213  -1.8117  -1.7812  -1.7777  -1.7735  -1.7648  -1.7604
    -1.7526  -1.7488  -1.7440  -1.7377  -1.7319  -1.7133  -1.7070  -1.6744
    -1.6699  -1.6560  -1.6430  -1.6362  -1.6084  -1.5926  -1.5818  -1.5464
    -1.5363  -1.5203  -1.5053  -1.4968  -1.4960  -1.4940  -1.4842  -1.4759
    -1.4749  -1.4697  -1.4686  -1.4679  -1.4657  -1.4646  -1.4525  -1.4439
    -1.4351  -1.4213  -1.4104  -1.4069  -1.4006  -1.3825  -1.3763  -1.3760
    -1.3751  -1.3641  -1.3473  -1.3295  -1.3208  -1.3102  -1.3049  -1.2937
    -1.2789  -1.2734  -1.2675  -1.2545  -1.2466  -1.2418  -1.2297  -1.2038
    -1.1984  -1.1930  -1.1888  -1.1881  -1.1770  -1.1658  -1.1614  -1.1536
    -1.1407  -1.1388  -1.1338  -1.1294  -1.1259  -1.1198  -1.1175  -1.1079
    -1.1000  -1.0988  -1.0964  -1.0913  -1.0776  -1.0741  -1.0713  -1.0337
    -1.0269  -1.0250  -1.0230  -1.0195  -1.0155  -0.9893  -0.9826  -0.9787
    -0.9597  -0.9563  -0.9501  -0.9481  -0.9450  -0.9345  -0.9298  -0.9010
    -0.8938  -0.8890  -0.8855  -0.8695  -0.8683  -0.8530  -0.8326  -0.8202
    -0.8070  -0.8013  -0.7693  -0.7659  -0.7623  -0.7587  -0.7570  -0.7540
    -0.7525  -0.7516  -0.7473  -0.7455  -0.7160  -0.7148  -0.7108  -0.7097
    -0.7079  -0.7002  -0.6952  -0.6785  -0.6689  -0.4185  -0.3948  -0.3513
    -0.3313  -0.3211  -0.2638  -0.1139  -0.1111  -0.0653   0.2028   0.2126
     0.5460   0.5599   0.5860   0.5889   0.6375   0.6395   0.7992   0.8140
     0.9235   0.9294   1.0544   1.5383   1.5690   1.5849   1.6183   1.6203
     1.7603   1.7709   1.8141   1.8233   1.9940   1.9963   2.2878   2.3094
     2.3118   2.3294   2.7666   2.7719   2.7822   2.7883   2.8018   2.8057
     2.8668   2.8692   3.0314   3.1495   3.1578   3.3383   3.3425   3.4416
     3.5157   3.5179   3.8164   3.8223   3.8721   3.8747   3.8784   4.0114
     4.0221   4.0458   4.0554   4.3117   4.3176   4.3543   4.3591   4.4628
     4.4754   4.5394   4.5426   4.8290   5.4115   5.4186   5.4998   5.5141
     5.6231   5.6261   5.6857   5.7013   5.7065   5.7148   5.7797   5.8198
     5.8240   6.0789   6.1084   6.1157   6.1311   6.1313   6.1426   6.1677
     6.1711   6.1864   6.3182   6.3228   6.4011   6.4486   6.4566   6.5214

          k =-0.2500-0.2500 0.0833 (167653 PWs)   bands (ev):

   -19.6136  -7.4400  -6.9172  -6.3896  -6.3843  -5.9488  -5.5559  -5.4505
    -5.4440  -5.2263  -5.2237  -5.1516  -5.1254  -5.0006  -4.9849  -4.8792
    -4.7913  -4.7882  -4.7706  -4.7608  -4.6082  -4.5835  -4.5793  -4.5785
    -4.5505  -4.5479  -4.5424  -4.5249  -4.4908  -4.4889  -4.4874  -4.4246
    -4.4157  -4.3956  -4.3607  -4.3372  -4.3352  -4.3200  -4.3014  -4.2978
    -4.2852  -4.2798  -4.2610  -4.2510  -4.2241  -4.1937  -4.1911  -4.1856
    -4.1851  -4.1827  -4.1544  -4.1240  -4.1128  -4.0960  -4.0947  -4.0919
    -4.0903  -4.0832  -4.0684  -4.0507  -4.0503  -3.9903  -3.9747  -3.9601
    -3.9278  -3.9246  -3.9211  -3.9196  -3.8976  -3.8909  -3.8875  -3.8386
    -3.8336  -3.8313  -3.8295  -3.7456  -3.7448  -3.7225  -3.7213  -3.7003
    -3.6857  -3.6678  -3.6508  -3.6400  -3.6075  -3.6020  -3.6013  -3.5949
    -3.5808  -3.5756  -3.5072  -3.4945  -3.4940  -3.4743  -3.4698  -3.4672
    -3.4515  -3.4478  -3.4432  -3.4408  -3.4011  -3.3916  -3.3838  -3.3779
    -3.3458  -3.3383  -3.3186  -3.2964  -3.2918  -3.2492  -3.2452  -3.2143
    -3.1875  -3.1853  -3.1840  -3.1825  -3.1785  -3.1772  -3.1613  -3.1407
    -3.1078  -3.1042  -3.0823  -3.0594  -3.0566  -3.0543  -3.0506  -3.0487
    -3.0474  -3.0469  -3.0161  -3.0128  -3.0089  -3.0069  -3.0015  -3.0002
    -2.9443  -2.9427  -2.9373  -2.9333  -2.9158  -2.9144  -2.9082  -2.8168
    -2.8132  -2.8109  -2.8071  -2.7972  -2.7946  -2.7922  -2.7887  -2.7814
    -2.7794  -2.7740  -2.7654  -2.7607  -2.7551  -2.7524  -2.7467  -2.7449
    -2.7375  -2.7182  -2.7077  -2.7043  -2.6914  -2.6901  -2.6763  -2.6745
    -2.6640  -2.6629  -2.6427  -2.6397  -2.6343  -2.6309  -2.6198  -2.5939
    -2.5916  -2.5887  -2.5339  -2.5257  -2.5223  -2.5115  -2.5037  -2.4944
    -2.4861  -2.4799  -2.4707  -2.4657  -2.4607  -2.4540  -2.4465  -2.4331
    -2.4288  -2.4112  -2.4058  -2.3961  -2.3939  -2.3828  -2.3821  -2.3704
    -2.3519  -2.3271  -2.2847  -2.2680  -2.2463  -2.2417  -2.2329  -2.2297
    -2.1937  -2.1788  -2.1766  -2.1505  -2.1408  -2.1360  -2.1141  -2.1031
    -2.0957  -2.0854  -2.0753  -2.0695  -2.0510  -2.0456  -2.0400  -2.0304
    -2.0292  -2.0271  -2.0233  -2.0003  -1.9955  -1.9933  -1.9898  -1.9888
    -1.9864  -1.9851  -1.9744  -1.9591  -1.9536  -1.9502  -1.9485  -1.9359
    -1.9322  -1.9298  -1.9266  -1.9210  -1.9187  -1.8835  -1.8796  -1.8387
    -1.8306  -1.8213  -1.8117  -1.7812  -1.7777  -1.7735  -1.7648  -1.7604
    -1.7527  -1.7488  -1.7440  -1.7377  -1.7319  -1.7133  -1.7070  -1.6744
    -1.6699  -1.6560  -1.6430  -1.6362  -1.6084  -1.5926  -1.5818  -1.5464
    -1.5363  -1.5203  -1.5053  -1.4968  -1.4960  -1.4940  -1.4842  -1.4759
    -1.4749  -1.4697  -1.4686  -1.4679  -1.4657  -1.4646  -1.4525  -1.4439
    -1.4351  -1.4213  -1.4104  -1.4069  -1.4006  -1.3825  -1.3763  -1.3760
    -1.3751  -1.3641  -1.3473  -1.3295  -1.3208  -1.3102  -1.3049  -1.2937
    -1.2789  -1.2734  -1.2675  -1.2545  -1.2466  -1.2418  -1.2297  -1.2039
    -1.1985  -1.1930  -1.1888  -1.1881  -1.1770  -1.1658  -1.1614  -1.1536
    -1.1407  -1.1388  -1.1338  -1.1294  -1.1259  -1.1198  -1.1175  -1.1079
    -1.1001  -1.0988  -1.0964  -1.0913  -1.0776  -1.0741  -1.0713  -1.0337
    -1.0269  -1.0250  -1.0230  -1.0195  -1.0155  -0.9893  -0.9826  -0.9787
    -0.9597  -0.9563  -0.9501  -0.9481  -0.9450  -0.9345  -0.9298  -0.9010
    -0.8938  -0.8890  -0.8855  -0.8695  -0.8683  -0.8530  -0.8326  -0.8202
    -0.8070  -0.8013  -0.7693  -0.7659  -0.7622  -0.7587  -0.7570  -0.7540
    -0.7525  -0.7516  -0.7473  -0.7455  -0.7160  -0.7148  -0.7108  -0.7097
    -0.7079  -0.7002  -0.6952  -0.6785  -0.6690  -0.4185  -0.3948  -0.3513
    -0.3313  -0.3211  -0.2638  -0.1139  -0.1111  -0.0653   0.2028   0.2126
     0.5460   0.5599   0.5860   0.5889   0.6375   0.6395   0.7992   0.8140
     0.9235   0.9294   1.0544   1.5383   1.5690   1.5849   1.6183   1.6203
     1.7603   1.7709   1.8141   1.8233   1.9940   1.9963   2.2878   2.3094
     2.3118   2.3294   2.7666   2.7719   2.7822   2.7883   2.8017   2.8057
     2.8668   2.8692   3.0313   3.1495   3.1578   3.3383   3.3425   3.4416
     3.5157   3.5179   3.8164   3.8223   3.8721   3.8747   3.8784   4.0114
     4.0221   4.0458   4.0554   4.3117   4.3176   4.3543   4.3590   4.4628
     4.4754   4.5394   4.5426   4.8289   5.4115   5.4186   5.4997   5.5139
     5.6231   5.6261   5.6858   5.7014   5.7066   5.7148   5.8191   5.8223
     5.8373   5.9990   6.0790   6.1105   6.1158   6.1312   6.1313   6.1427
     6.2146   6.2281   6.3190   6.3226   6.4314   6.4380   6.4552   6.4588

          k =-0.2500 0.2500-0.0833 (167653 PWs)   bands (ev):

   -19.6136  -7.4400  -6.9171  -6.3900  -6.3840  -5.9487  -5.5558  -5.4507
    -5.4437  -5.2265  -5.2237  -5.1524  -5.1250  -5.0001  -4.9849  -4.8788
    -4.7926  -4.7883  -4.7710  -4.7607  -4.6069  -4.5835  -4.5794  -4.5783
    -4.5504  -4.5480  -4.5424  -4.5241  -4.4903  -4.4892  -4.4871  -4.4246
    -4.4161  -4.3956  -4.3608  -4.3372  -4.3353  -4.3210  -4.3014  -4.2975
    -4.2853  -4.2798  -4.2609  -4.2506  -4.2248  -4.1939  -4.1908  -4.1857
    -4.1849  -4.1832  -4.1554  -4.1238  -4.1128  -4.0961  -4.0946  -4.0921
    -4.0902  -4.0833  -4.0685  -4.0503  -4.0498  -3.9899  -3.9763  -3.9600
    -3.9281  -3.9246  -3.9205  -3.9196  -3.8975  -3.8905  -3.8877  -3.8387
    -3.8336  -3.8310  -3.8293  -3.7453  -3.7447  -3.7222  -3.7215  -3.7003
    -3.6858  -3.6678  -3.6510  -3.6397  -3.6076  -3.6018  -3.6012  -3.5954
    -3.5805  -3.5752  -3.5080  -3.4944  -3.4940  -3.4743  -3.4700  -3.4670
    -3.4517  -3.4477  -3.4433  -3.4408  -3.4013  -3.3914  -3.3840  -3.3773
    -3.3461  -3.3379  -3.3187  -3.2970  -3.2917  -3.2493  -3.2449  -3.2139
    -3.1871  -3.1852  -3.1839  -3.1826  -3.1785  -3.1773  -3.1614  -3.1407
    -3.1080  -3.1043  -3.0824  -3.0592  -3.0564  -3.0551  -3.0506  -3.0485
    -3.0472  -3.0467  -3.0163  -3.0134  -3.0087  -3.0071  -3.0016  -2.9998
    -2.9446  -2.9433  -2.9372  -2.9330  -2.9158  -2.9140  -2.9080  -2.8167
    -2.8137  -2.8113  -2.8069  -2.7970  -2.7949  -2.7922  -2.7888  -2.7814
    -2.7794  -2.7739  -2.7659  -2.7610  -2.7551  -2.7526  -2.7469  -2.7450
    -2.7374  -2.7180  -2.7072  -2.7039  -2.6915  -2.6901  -2.6766  -2.6743
    -2.6641  -2.6627  -2.6428  -2.6402  -2.6345  -2.6309  -2.6198  -2.5934
    -2.5915  -2.5887  -2.5338  -2.5257  -2.5234  -2.5116  -2.5039  -2.4943
    -2.4858  -2.4805  -2.4707  -2.4660  -2.4601  -2.4526  -2.4459  -2.4334
    -2.4284  -2.4106  -2.4055  -2.3954  -2.3936  -2.3831  -2.3823  -2.3682
    -2.3522  -2.3270  -2.2837  -2.2688  -2.2462  -2.2418  -2.2332  -2.2294
    -2.1921  -2.1795  -2.1770  -2.1514  -2.1419  -2.1358  -2.1142  -2.1026
    -2.0961  -2.0855  -2.0763  -2.0696  -2.0525  -2.0450  -2.0412  -2.0302
    -2.0291  -2.0268  -2.0243  -2.0012  -1.9954  -1.9928  -1.9899  -1.9887
    -1.9864  -1.9849  -1.9744  -1.9589  -1.9537  -1.9507  -1.9486  -1.9362
    -1.9325  -1.9294  -1.9261  -1.9212  -1.9187  -1.8836  -1.8795  -1.8394
    -1.8351  -1.8213  -1.8136  -1.7807  -1.7778  -1.7736  -1.7634  -1.7610
    -1.7515  -1.7482  -1.7439  -1.7382  -1.7316  -1.7135  -1.7069  -1.6742
    -1.6701  -1.6560  -1.6423  -1.6354  -1.6095  -1.5921  -1.5763  -1.5464
    -1.5374  -1.5211  -1.5047  -1.4968  -1.4960  -1.4943  -1.4836  -1.4760
    -1.4750  -1.4692  -1.4686  -1.4681  -1.4659  -1.4643  -1.4526  -1.4445
    -1.4350  -1.4219  -1.4101  -1.4064  -1.3981  -1.3829  -1.3762  -1.3758
    -1.3745  -1.3636  -1.3495  -1.3294  -1.3198  -1.3108  -1.3035  -1.2938
    -1.2800  -1.2735  -1.2681  -1.2536  -1.2471  -1.2413  -1.2310  -1.2050
    -1.1981  -1.1925  -1.1886  -1.1879  -1.1780  -1.1666  -1.1611  -1.1527
    -1.1409  -1.1385  -1.1341  -1.1289  -1.1255  -1.1202  -1.1178  -1.1081
    -1.1004  -1.0991  -1.0969  -1.0920  -1.0773  -1.0740  -1.0711  -1.0344
    -1.0270  -1.0254  -1.0224  -1.0195  -1.0157  -0.9867  -0.9824  -0.9772
    -0.9600  -0.9566  -0.9493  -0.9484  -0.9448  -0.9343  -0.9297  -0.9003
    -0.8948  -0.8889  -0.8859  -0.8697  -0.8682  -0.8529  -0.8319  -0.8203
    -0.8074  -0.8010  -0.7702  -0.7658  -0.7619  -0.7587  -0.7576  -0.7539
    -0.7523  -0.7515  -0.7473  -0.7456  -0.7159  -0.7139  -0.7100  -0.7092
    -0.7078  -0.7004  -0.6950  -0.6806  -0.6689  -0.4187  -0.3948  -0.3500
    -0.3322  -0.3214  -0.2652  -0.1150  -0.1107  -0.0657   0.2040   0.2118
     0.5471   0.5588   0.5853   0.5890   0.6363   0.6396   0.8012   0.8127
     0.9237   0.9297   1.0543   1.5378   1.5717   1.5850   1.6181   1.6206
     1.7625   1.7690   1.8152   1.8214   1.9936   1.9964   2.2886   2.3100
     2.3108   2.3293   2.7685   2.7723   2.7833   2.7870   2.8008   2.8061
     2.8665   2.8696   3.0318   3.1510   3.1534   3.3387   3.3389   3.4417
     3.5168   3.5174   3.8176   3.8199   3.8719   3.8754   3.8809   4.0084
     4.0228   4.0430   4.0579   4.3102   4.3186   4.3560   4.3581   4.4647
     4.4737   4.5416   4.5451   4.8315   5.4124   5.4152   5.5001   5.5166
     5.6194   5.6262   5.6866   5.7014   5.7045   5.7153   5.8178   5.8220
     5.8366   5.9985   6.0804   6.1090   6.1176   6.1286   6.1313   6.1427
     6.2114   6.2306   6.3134   6.3256   6.4314   6.4393   6.4524   6.4603

          k = 0.2500-0.2500-0.0833 (167653 PWs)   bands (ev):

   -19.6136  -7.4400  -6.9171  -6.3900  -6.3840  -5.9487  -5.5558  -5.4507
    -5.4437  -5.2265  -5.2237  -5.1524  -5.1250  -5.0001  -4.9849  -4.8788
    -4.7926  -4.7883  -4.7710  -4.7607  -4.6069  -4.5835  -4.5794  -4.5783
    -4.5504  -4.5480  -4.5424  -4.5241  -4.4903  -4.4892  -4.4871  -4.4246
    -4.4161  -4.3956  -4.3608  -4.3372  -4.3353  -4.3210  -4.3014  -4.2975
    -4.2853  -4.2798  -4.2609  -4.2506  -4.2248  -4.1939  -4.1908  -4.1857
    -4.1849  -4.1832  -4.1554  -4.1238  -4.1128  -4.0961  -4.0946  -4.0921
    -4.0902  -4.0833  -4.0685  -4.0503  -4.0498  -3.9899  -3.9763  -3.9600
    -3.9281  -3.9246  -3.9205  -3.9196  -3.8975  -3.8905  -3.8877  -3.8387
    -3.8336  -3.8310  -3.8293  -3.7453  -3.7447  -3.7222  -3.7215  -3.7003
    -3.6858  -3.6678  -3.6510  -3.6397  -3.6076  -3.6018  -3.6012  -3.5954
    -3.5805  -3.5752  -3.5080  -3.4944  -3.4940  -3.4743  -3.4700  -3.4670
    -3.4517  -3.4477  -3.4433  -3.4408  -3.4013  -3.3914  -3.3840  -3.3773
    -3.3461  -3.3379  -3.3187  -3.2970  -3.2917  -3.2493  -3.2449  -3.2139
    -3.1871  -3.1852  -3.1839  -3.1826  -3.1785  -3.1773  -3.1614  -3.1407
    -3.1080  -3.1043  -3.0824  -3.0592  -3.0564  -3.0551  -3.0506  -3.0485
    -3.0472  -3.0467  -3.0163  -3.0134  -3.0087  -3.0071  -3.0016  -2.9998
    -2.9446  -2.9433  -2.9372  -2.9330  -2.9158  -2.9140  -2.9080  -2.8167
    -2.8137  -2.8113  -2.8069  -2.7970  -2.7949  -2.7922  -2.7888  -2.7814
    -2.7794  -2.7739  -2.7659  -2.7610  -2.7551  -2.7526  -2.7469  -2.7450
    -2.7374  -2.7180  -2.7072  -2.7039  -2.6915  -2.6901  -2.6766  -2.6743
    -2.6641  -2.6627  -2.6428  -2.6402  -2.6345  -2.6309  -2.6198  -2.5934
    -2.5915  -2.5887  -2.5338  -2.5257  -2.5234  -2.5116  -2.5039  -2.4943
    -2.4858  -2.4805  -2.4707  -2.4660  -2.4601  -2.4526  -2.4459  -2.4334
    -2.4284  -2.4106  -2.4055  -2.3954  -2.3936  -2.3831  -2.3823  -2.3682
    -2.3522  -2.3270  -2.2837  -2.2688  -2.2462  -2.2418  -2.2332  -2.2294
    -2.1921  -2.1795  -2.1770  -2.1514  -2.1419  -2.1358  -2.1142  -2.1026
    -2.0961  -2.0855  -2.0763  -2.0696  -2.0525  -2.0450  -2.0412  -2.0302
    -2.0291  -2.0268  -2.0243  -2.0012  -1.9954  -1.9928  -1.9899  -1.9887
    -1.9864  -1.9849  -1.9744  -1.9589  -1.9537  -1.9507  -1.9486  -1.9362
    -1.9325  -1.9294  -1.9261  -1.9212  -1.9187  -1.8836  -1.8795  -1.8394
    -1.8351  -1.8213  -1.8136  -1.7807  -1.7778  -1.7736  -1.7634  -1.7610
    -1.7515  -1.7482  -1.7439  -1.7382  -1.7316  -1.7135  -1.7069  -1.6742
    -1.6701  -1.6560  -1.6423  -1.6354  -1.6095  -1.5921  -1.5763  -1.5464
    -1.5374  -1.5211  -1.5047  -1.4968  -1.4960  -1.4943  -1.4836  -1.4760
    -1.4750  -1.4692  -1.4686  -1.4681  -1.4659  -1.4643  -1.4526  -1.4445
    -1.4350  -1.4219  -1.4101  -1.4064  -1.3981  -1.3829  -1.3762  -1.3758
    -1.3745  -1.3636  -1.3495  -1.3294  -1.3198  -1.3108  -1.3035  -1.2938
    -1.2800  -1.2735  -1.2681  -1.2536  -1.2471  -1.2413  -1.2310  -1.2050
    -1.1981  -1.1925  -1.1886  -1.1879  -1.1780  -1.1666  -1.1611  -1.1527
    -1.1409  -1.1385  -1.1341  -1.1289  -1.1255  -1.1202  -1.1178  -1.1081
    -1.1004  -1.0991  -1.0969  -1.0920  -1.0773  -1.0740  -1.0711  -1.0344
    -1.0270  -1.0254  -1.0224  -1.0195  -1.0157  -0.9867  -0.9824  -0.9772
    -0.9600  -0.9566  -0.9493  -0.9484  -0.9448  -0.9343  -0.9297  -0.9003
    -0.8948  -0.8889  -0.8859  -0.8697  -0.8682  -0.8529  -0.8319  -0.8203
    -0.8074  -0.8010  -0.7702  -0.7658  -0.7619  -0.7587  -0.7576  -0.7539
    -0.7523  -0.7515  -0.7473  -0.7456  -0.7159  -0.7139  -0.7100  -0.7092
    -0.7078  -0.7004  -0.6950  -0.6806  -0.6689  -0.4187  -0.3948  -0.3500
    -0.3322  -0.3214  -0.2652  -0.1150  -0.1107  -0.0657   0.2040   0.2118
     0.5471   0.5588   0.5853   0.5890   0.6363   0.6396   0.8012   0.8127
     0.9237   0.9297   1.0543   1.5378   1.5717   1.5850   1.6181   1.6206
     1.7625   1.7690   1.8152   1.8214   1.9936   1.9964   2.2886   2.3100
     2.3108   2.3293   2.7685   2.7723   2.7833   2.7870   2.8008   2.8061
     2.8665   2.8696   3.0318   3.1510   3.1534   3.3387   3.3389   3.4417
     3.5168   3.5174   3.8176   3.8199   3.8719   3.8754   3.8809   4.0084
     4.0228   4.0430   4.0579   4.3102   4.3186   4.3560   4.3581   4.4647
     4.4737   4.5416   4.5451   4.8315   5.4124   5.4152   5.5001   5.5166
     5.6194   5.6262   5.6866   5.7014   5.7045   5.7153   5.8178   5.8219
     5.8367   5.9986   6.0804   6.1090   6.1176   6.1286   6.1313   6.1427
     6.2113   6.2306   6.3133   6.3257   6.4312   6.4395   6.4526   6.4602

          k =-0.2500 0.2500 0.2500 (167588 PWs)   bands (ev):

   -19.6136  -7.4400  -6.9171  -6.3900  -6.3840  -5.9487  -5.5558  -5.4507
    -5.4437  -5.2265  -5.2237  -5.1524  -5.1250  -5.0001  -4.9849  -4.8788
    -4.7926  -4.7883  -4.7710  -4.7607  -4.6069  -4.5835  -4.5794  -4.5783
    -4.5504  -4.5480  -4.5424  -4.5241  -4.4903  -4.4892  -4.4871  -4.4246
    -4.4161  -4.3956  -4.3608  -4.3372  -4.3353  -4.3210  -4.3014  -4.2975
    -4.2853  -4.2798  -4.2610  -4.2506  -4.2248  -4.1939  -4.1908  -4.1857
    -4.1849  -4.1832  -4.1554  -4.1238  -4.1128  -4.0961  -4.0946  -4.0921
    -4.0902  -4.0833  -4.0685  -4.0503  -4.0498  -3.9899  -3.9763  -3.9600
    -3.9281  -3.9246  -3.9205  -3.9196  -3.8975  -3.8905  -3.8877  -3.8387
    -3.8336  -3.8310  -3.8293  -3.7453  -3.7447  -3.7222  -3.7215  -3.7003
    -3.6858  -3.6678  -3.6510  -3.6397  -3.6076  -3.6018  -3.6012  -3.5953
    -3.5805  -3.5752  -3.5080  -3.4944  -3.4940  -3.4743  -3.4700  -3.4670
    -3.4517  -3.4477  -3.4433  -3.4407  -3.4013  -3.3914  -3.3840  -3.3773
    -3.3461  -3.3379  -3.3187  -3.2970  -3.2917  -3.2493  -3.2449  -3.2139
    -3.1871  -3.1852  -3.1839  -3.1825  -3.1785  -3.1773  -3.1614  -3.1407
    -3.1079  -3.1043  -3.0824  -3.0592  -3.0564  -3.0551  -3.0506  -3.0485
    -3.0472  -3.0467  -3.0163  -3.0134  -3.0087  -3.0071  -3.0015  -2.9998
    -2.9446  -2.9433  -2.9372  -2.9330  -2.9158  -2.9140  -2.9080  -2.8167
    -2.8137  -2.8113  -2.8069  -2.7970  -2.7949  -2.7922  -2.7888  -2.7814
    -2.7794  -2.7739  -2.7659  -2.7609  -2.7551  -2.7526  -2.7469  -2.7449
    -2.7374  -2.7180  -2.7072  -2.7039  -2.6915  -2.6900  -2.6766  -2.6743
    -2.6641  -2.6627  -2.6428  -2.6402  -2.6345  -2.6309  -2.6198  -2.5934
    -2.5915  -2.5887  -2.5338  -2.5257  -2.5234  -2.5116  -2.5039  -2.4943
    -2.4857  -2.4805  -2.4707  -2.4660  -2.4601  -2.4526  -2.4458  -2.4334
    -2.4284  -2.4106  -2.4055  -2.3954  -2.3936  -2.3831  -2.3823  -2.3682
    -2.3522  -2.3270  -2.2837  -2.2689  -2.2462  -2.2418  -2.2332  -2.2294
    -2.1921  -2.1795  -2.1770  -2.1514  -2.1419  -2.1358  -2.1142  -2.1026
    -2.0961  -2.0855  -2.0763  -2.0696  -2.0525  -2.0450  -2.0412  -2.0302
    -2.0291  -2.0268  -2.0243  -2.0012  -1.9954  -1.9928  -1.9899  -1.9887
    -1.9864  -1.9849  -1.9744  -1.9589  -1.9537  -1.9507  -1.9486  -1.9362
    -1.9325  -1.9294  -1.9261  -1.9212  -1.9187  -1.8836  -1.8795  -1.8394
    -1.8351  -1.8213  -1.8136  -1.7807  -1.7778  -1.7736  -1.7634  -1.7609
    -1.7515  -1.7482  -1.7439  -1.7382  -1.7316  -1.7135  -1.7069  -1.6742
    -1.6701  -1.6560  -1.6423  -1.6354  -1.6095  -1.5921  -1.5763  -1.5464
    -1.5374  -1.5211  -1.5047  -1.4968  -1.4960  -1.4943  -1.4836  -1.4760
    -1.4750  -1.4691  -1.4686  -1.4681  -1.4659  -1.4643  -1.4526  -1.4445
    -1.4350  -1.4219  -1.4101  -1.4064  -1.3981  -1.3829  -1.3762  -1.3758
    -1.3745  -1.3636  -1.3495  -1.3294  -1.3198  -1.3108  -1.3035  -1.2938
    -1.2800  -1.2735  -1.2681  -1.2536  -1.2471  -1.2413  -1.2310  -1.2050
    -1.1981  -1.1925  -1.1886  -1.1879  -1.1780  -1.1666  -1.1611  -1.1527
    -1.1409  -1.1385  -1.1341  -1.1289  -1.1255  -1.1202  -1.1178  -1.1081
    -1.1004  -1.0991  -1.0969  -1.0920  -1.0773  -1.0740  -1.0711  -1.0344
    -1.0270  -1.0254  -1.0224  -1.0196  -1.0157  -0.9867  -0.9824  -0.9772
    -0.9600  -0.9566  -0.9493  -0.9484  -0.9448  -0.9343  -0.9297  -0.9003
    -0.8948  -0.8889  -0.8859  -0.8697  -0.8682  -0.8529  -0.8319  -0.8203
    -0.8074  -0.8010  -0.7702  -0.7658  -0.7619  -0.7587  -0.7576  -0.7539
    -0.7523  -0.7515  -0.7473  -0.7456  -0.7159  -0.7139  -0.7100  -0.7092
    -0.7078  -0.7004  -0.6950  -0.6806  -0.6689  -0.4187  -0.3948  -0.3500
    -0.3322  -0.3214  -0.2652  -0.1150  -0.1107  -0.0657   0.2040   0.2118
     0.5471   0.5588   0.5853   0.5890   0.6363   0.6396   0.8012   0.8127
     0.9237   0.9297   1.0543   1.5378   1.5717   1.5850   1.6181   1.6206
     1.7625   1.7690   1.8152   1.8214   1.9936   1.9964   2.2886   2.3100
     2.3108   2.3293   2.7685   2.7723   2.7833   2.7870   2.8008   2.8061
     2.8665   2.8696   3.0318   3.1510   3.1534   3.3387   3.3389   3.4417
     3.5168   3.5174   3.8176   3.8199   3.8719   3.8754   3.8809   4.0084
     4.0228   4.0431   4.0579   4.3102   4.3186   4.3560   4.3581   4.4647
     4.4737   4.5416   4.5451   4.8316   5.4124   5.4152   5.5002   5.5167
     5.6194   5.6261   5.6865   5.7014   5.7044   5.7153   5.7798   5.8180
     5.8234   6.0803   6.1058   6.1175   6.1285   6.1313   6.1425   6.1663
     6.1712   6.1879   6.3118   6.3258   6.4022   6.4467   6.4580   6.5212

     the Fermi energy is     0.8737 ev

!    total energy              =   -7379.95602730 Ry
     Harris-Foulkes estimate   =   -7379.95602730 Ry
     estimated scf accuracy    <          8.6E-09 Ry

     The total energy is the sum of the following terms:

     one-electron contribution =  -48902.05608722 Ry
     hartree contribution      =   24998.11001149 Ry
     xc contribution           =   -3556.33304722 Ry
     ewald contribution        =   20080.32160729 Ry
     smearing contrib. (-TS)   =       0.00148837 Ry

     convergence has been achieved in  28 iterations

     Writing output data file 9135548.save

     init_run     :    110.45s CPU    115.26s WALL (       1 calls)
     electrons    :   7564.67s CPU   7897.93s WALL (       1 calls)

     Called by init_run:
     wfcinit      :     87.35s CPU     91.87s WALL (       1 calls)
     potinit      :      3.16s CPU      3.21s WALL (       1 calls)

     Called by electrons:
     c_bands      :   6379.94s CPU   6649.99s WALL (      29 calls)
     sum_band     :    828.84s CPU    886.42s WALL (      29 calls)
     v_of_rho     :     20.58s CPU     21.93s WALL (      29 calls)
     newd         :    338.55s CPU    341.89s WALL (      29 calls)
     mix_rho      :      3.44s CPU      3.83s WALL (      29 calls)

     Called by c_bands:
     init_us_2    :      8.79s CPU      8.98s WALL (     354 calls)
     cegterg      :   6299.97s CPU   6569.13s WALL (     174 calls)

     Called by *egterg:
     h_psi        :   2920.74s CPU   3159.50s WALL (     826 calls)
     s_psi        :    362.56s CPU    364.14s WALL (     826 calls)
     g_psi        :      4.62s CPU      4.63s WALL (     646 calls)
     cdiaghg      :   1410.49s CPU   1413.59s WALL (     814 calls)

     Called by h_psi:
     add_vuspsi   :    363.28s CPU    364.82s WALL (     826 calls)

     General routines
     calbec       :    552.64s CPU    554.04s WALL (    1000 calls)
     fft          :     88.02s CPU     90.31s WALL (     464 calls)
     ffts         :      2.03s CPU      2.25s WALL (      58 calls)
     fftw         :   2385.83s CPU   2659.23s WALL (  467390 calls)
     interpolate  :      5.21s CPU      5.83s WALL (      58 calls)
     davcio       :      0.01s CPU      0.12s WALL (       6 calls)

     Parallel routines
     fft_scatter  :   1926.82s CPU   2150.87s WALL (  467912 calls)

     PWSCF        :     2h 8m CPU        2h13m WALL


   This run was terminated on:   4: 1:51   9Aug2015            

=------------------------------------------------------------------------------=
   JOB DONE.
=------------------------------------------------------------------------------=
