Setting SGE environment for SCC

     Program PWSCF v.5.1.2 starts on  8Aug2015 at 20:23:10 

     This program is part of the open-source Quantum ESPRESSO suite
     for quantum simulation of materials; please cite
         "P. Giannozzi et al., J. Phys.:Condens. Matter 21 395502 (2009);
          URL http://www.quantum-espresso.org", 
     in publications or presentations arising from this work. More details at
     http://www.quantum-espresso.org/quote

     Parallel version (MPI), running on    32 processors
     R & G space division:  proc/nbgrp/npool/nimage =      32
     Reading input from top.O1.Au62.d.2.6.phi.0.psi.180.in
Warning: card &IONS ignored
Warning: card / ignored
Warning: card &CELL ignored
Warning: card / ignored

     Current dimensions of program PWSCF are:
     Max number of different atomic species (ntypx) = 10
     Max number of k-points (npk) =  40000
     Max angular momentum in pseudopotentials (lmaxx) =  3

     Subspace diagonalization in iterative solution of the eigenvalue problem:
     a serial algorithm will be used


     Parallelization info
     --------------------
     sticks:   dense  smooth     PW     G-vecs:    dense   smooth      PW
     Min         578     289     74               118518    41891    5486
     Max         579     290     75               118533    41932    5497
     Sum       18505    9265   2385              3792731  1341081  175711


     Title: 
     top.O1.Au62.d.2.6.phi.0.psi.180                                            


     bravais-lattice index     =            8
     lattice parameter (alat)  =      24.1233  a.u.
     unit-cell volume          =   28076.2361 (a.u.)^3
     number of atoms/cell      =           75
     number of atomic types    =            3
     number of electrons       =       800.00
     number of Kohn-Sham states=          480
     kinetic-energy cutoff     =      50.0000  Ry
     charge density cutoff     =     400.0000  Ry
     convergence threshold     =      1.0E-08
     mixing beta               =       0.7000
     number of iterations used =            8  plain     mixing
     Exchange-correlation      =  SLA  PW   PBE  PBE ( 1  4  3  4 0 0)

     celldm(1)=  24.123277  celldm(2)=   1.000000  celldm(3)=   2.000000
     celldm(4)=   0.000000  celldm(5)=   0.000000  celldm(6)=   0.000000

     crystal axes: (cart. coord. in units of alat)
               a(1) = (   1.000000   0.000000   0.000000 )  
               a(2) = (   0.000000   1.000000   0.000000 )  
               a(3) = (   0.000000   0.000000   2.000000 )  

     reciprocal axes: (cart. coord. in units 2 pi/alat)
               b(1) = (  1.000000  0.000000  0.000000 )  
               b(2) = (  0.000000  1.000000  0.000000 )  
               b(3) = (  0.000000  0.000000  0.500000 )  


     PseudoPot. # 1 for Au read from file:
     /home/scc/andrejb/qe/pseudo/Au.pbe-nd-van.UPF
     MD5 check sum: 458681b50f36d87ef23c61b04bba420a
     Pseudo is Ultrasoft + core correction, Zval = 11.0
     Generated by new atomic code, or converted to UPF format
     Using radial grid of  985 points,  3 beta functions with: 
                l(1) =   1
                l(2) =   2
                l(3) =   2
     Q(r) pseudized with  8 coefficients,  rinner =    1.100   1.100   1.100
                                                       1.100   1.100

     PseudoPot. # 2 for H  read from file:
     /home/scc/andrejb/qe/pseudo/H.pbe-van_ak.UPF
     MD5 check sum: 403db7282739603aa925980fa9b8608d
     Pseudo is Ultrasoft, Zval =  1.0
     Generated by new atomic code, or converted to UPF format
     Using radial grid of  615 points,  1 beta functions with: 
                l(1) =   0
     Q(r) pseudized with  8 coefficients,  rinner =    0.800

     PseudoPot. # 3 for O  read from file:
     /home/scc/andrejb/qe/pseudo/O.pbe-van_ak.UPF
     MD5 check sum: 4b8c549914a63cae506c6ff22b5af4fe
     Pseudo is Ultrasoft, Zval =  6.0
     Generated by new atomic code, or converted to UPF format
     Using radial grid of  737 points,  4 beta functions with: 
                l(1) =   0
                l(2) =   0
                l(3) =   1
                l(4) =   1
     Q(r) pseudized with  8 coefficients,  rinner =    0.800   0.800   0.800


     atomic species   valence    mass     pseudopotential
        Au            11.00   196.96657     Au( 1.00)
        H              1.00     1.01000     H ( 1.00)
        O              6.00    16.00000     O ( 1.00)

     No symmetry found



   Cartesian axes

     site n.     atom                  positions (alat units)
         1           O   tau(   1) = (   0.4998324   0.3332216   0.7029927  )
         2           H   tau(   2) = (   0.4527548   0.3723931   0.6574988  )
         3           H   tau(   3) = (   0.5454827   0.2952199   0.6551350  )
         4           Au  tau(   4) = (   0.0000000   0.0000000   0.0000000  )
         5           Au  tau(   5) = (   0.3332217   0.0000000   0.0000000  )
         6           Au  tau(   6) = (   0.6664434   0.0000000   0.0000000  )
         7           Au  tau(   7) = (   0.1666109   0.1666109   0.0000000  )
         8           Au  tau(   8) = (   0.4998326   0.1666109   0.0000000  )
         9           Au  tau(   9) = (   0.8330542   0.1666109   0.0000000  )
        10           Au  tau(  10) = (   0.0000000   0.3332217   0.0000000  )
        11           Au  tau(  11) = (   0.3332217   0.3332217   0.0000000  )
        12           Au  tau(  12) = (   0.6664434   0.3332217   0.0000000  )
        13           Au  tau(  13) = (   0.1666109   0.4998326   0.0000000  )
        14           Au  tau(  14) = (   0.4998326   0.4998326   0.0000000  )
        15           Au  tau(  15) = (   0.8330542   0.4998326   0.0000000  )
        16           Au  tau(  16) = (   0.0000000   0.6664434   0.0000000  )
        17           Au  tau(  17) = (   0.3332217   0.6664434   0.0000000  )
        18           Au  tau(  18) = (   0.6664434   0.6664434   0.0000000  )
        19           Au  tau(  19) = (   0.1666109   0.8330542   0.0000000  )
        20           Au  tau(  20) = (   0.4998326   0.8330542   0.0000000  )
        21           Au  tau(  21) = (   0.8330542   0.8330542   0.0000000  )
        22           Au  tau(  22) = (   0.1666109   0.0000000   0.1666109  )
        23           Au  tau(  23) = (   0.4998326   0.0000000   0.1666109  )
        24           Au  tau(  24) = (   0.8330542   0.0000000   0.1666109  )
        25           Au  tau(  25) = (   0.0000000   0.1666109   0.1666109  )
        26           Au  tau(  26) = (   0.3332217   0.1666109   0.1666109  )
        27           Au  tau(  27) = (   0.6664434   0.1666109   0.1666109  )
        28           Au  tau(  28) = (   0.1666109   0.3332217   0.1666109  )
        29           Au  tau(  29) = (   0.4998326   0.3332217   0.1666109  )
        30           Au  tau(  30) = (   0.8330542   0.3332217   0.1666109  )
        31           Au  tau(  31) = (   0.0000000   0.4998326   0.1666109  )
        32           Au  tau(  32) = (   0.3332217   0.4998326   0.1666109  )
        33           Au  tau(  33) = (   0.6664434   0.4998326   0.1666109  )
        34           Au  tau(  34) = (   0.1666109   0.6664434   0.1666109  )
        35           Au  tau(  35) = (   0.4998326   0.6664434   0.1666109  )
        36           Au  tau(  36) = (   0.8330542   0.6664434   0.1666109  )
        37           Au  tau(  37) = (   0.0000000   0.8330542   0.1666109  )
        38           Au  tau(  38) = (   0.3332217   0.8330542   0.1666109  )
        39           Au  tau(  39) = (   0.6664434   0.8330542   0.1666109  )
        40           Au  tau(  40) = (  -0.0000182  -0.0000182   0.3335478  )
        41           Au  tau(  41) = (   0.3332215  -0.0000181   0.3335473  )
        42           Au  tau(  42) = (   0.6664447  -0.0000183   0.3335481  )
        43           Au  tau(  43) = (  -0.0000181   0.3332215   0.3335473  )
        44           Au  tau(  44) = (   0.3332215   0.3332215   0.3335468  )
        45           Au  tau(  45) = (   0.6664445   0.3332215   0.3335477  )
        46           Au  tau(  46) = (  -0.0000183   0.6664447   0.3335481  )
        47           Au  tau(  47) = (   0.3332215   0.6664445   0.3335477  )
        48           Au  tau(  48) = (   0.6664446   0.6664446   0.3335486  )
        49           Au  tau(  49) = (   0.1666097   0.1666097   0.3335483  )
        50           Au  tau(  50) = (   0.4998320   0.1666098   0.3335477  )
        51           Au  tau(  51) = (   0.8330732   0.1666096   0.3335480  )
        52           Au  tau(  52) = (   0.1666098   0.4998320   0.3335477  )
        53           Au  tau(  53) = (   0.4998322   0.4998322   0.3335470  )
        54           Au  tau(  54) = (   0.8330731   0.4998322   0.3335474  )
        55           Au  tau(  55) = (   0.1666096   0.8330732   0.3335480  )
        56           Au  tau(  56) = (   0.4998322   0.8330731   0.3335474  )
        57           Au  tau(  57) = (   0.8330731   0.8330731   0.3335478  )
        58           Au  tau(  58) = (   0.1666104  -0.0000111   0.4993095  )
        59           Au  tau(  59) = (   0.4998323  -0.0000112   0.4993099  )
        60           Au  tau(  60) = (   0.8330660  -0.0000111   0.4993009  )
        61           Au  tau(  61) = (  -0.0000111   0.1666104   0.4993095  )
        62           Au  tau(  62) = (   0.3332213   0.1666106   0.4993185  )
        63           Au  tau(  63) = (   0.6664437   0.1666106   0.4993187  )
        64           Au  tau(  64) = (   0.1666106   0.3332213   0.4993185  )
        65           Au  tau(  65) = (   0.4998324   0.3332216   0.4993185  )
        66           Au  tau(  66) = (   0.8330658   0.3332215   0.4993102  )
        67           Au  tau(  67) = (  -0.0000112   0.4998323   0.4993099  )
        68           Au  tau(  68) = (   0.3332216   0.4998324   0.4993185  )
        69           Au  tau(  69) = (   0.6664437   0.4998325   0.4993187  )
        70           Au  tau(  70) = (   0.1666106   0.6664437   0.4993187  )
        71           Au  tau(  71) = (   0.4998325   0.6664437   0.4993187  )
        72           Au  tau(  72) = (   0.8330658   0.6664438   0.4993102  )
        73           Au  tau(  73) = (  -0.0000111   0.8330660   0.4993009  )
        74           Au  tau(  74) = (   0.3332215   0.8330658   0.4993102  )
        75           Au  tau(  75) = (   0.6664438   0.8330658   0.4993102  )

     number of k points=     6  Marzari-Vanderbilt smearing, width (Ry)=  0.0200
                       cart. coord. in units 2pi/alat
        k(    1) = (   0.2500000   0.2500000   0.0833333), wk =   0.3333333
        k(    2) = (   0.2500000   0.2500000  -0.2500000), wk =   0.3333333
        k(    3) = (  -0.2500000  -0.2500000   0.0833333), wk =   0.3333333
        k(    4) = (  -0.2500000   0.2500000  -0.0833333), wk =   0.3333333
        k(    5) = (   0.2500000  -0.2500000  -0.0833333), wk =   0.3333333
        k(    6) = (  -0.2500000   0.2500000   0.2500000), wk =   0.3333333

     Dense  grid:  3792731 G-vectors     FFT dimensions: ( 160, 160, 320)

     Smooth grid:  1341081 G-vectors     FFT dimensions: ( 120, 120, 225)

     Largest allocated arrays     est. size (Mb)     dimensions
        Kohn-Sham Wavefunctions        38.58 Mb     (    5267,  480)
        NL pseudopotentials            76.03 Mb     (    5267,  946)
        Each V/rho on FFT grid          3.91 Mb     (  256000)
        Each G-vector array             0.90 Mb     (  118520)
        G-vector shells                 0.08 Mb     (   10286)
     Largest temporary arrays     est. size (Mb)     dimensions
        Auxiliary wavefunctions       154.31 Mb     (    5267, 1920)
        Each subspace H/S matrix       56.25 Mb     (    1920, 1920)
        Each <psi_i|beta_j> matrix      6.93 Mb     (     946,  480)
        Arrays for rho mixing          31.25 Mb     (  256000,    8)

     Initial potential from superposition of free atoms
     Check: negative starting charge=   -1.945224

     starting charge  799.16392, renormalised to  800.00000

     negative rho (up, down):  1.947E+00 0.000E+00
     Starting wfc are  654 randomized atomic wfcs

     total cpu time spent up to now is      118.2 secs

     Self-consistent Calculation

     iteration #  1     ecut=    50.00 Ry     beta=0.70
     Davidson diagonalization with overlap
     ethr =  1.00E-02,  avg # of iterations =  3.0

     Threshold (ethr) on eigenvalues was too large:
     Diagonalizing with lowered threshold

     Davidson diagonalization with overlap
     ethr =  4.76E-04,  avg # of iterations =  2.0

     negative rho (up, down):  1.932E+00 0.000E+00

     total cpu time spent up to now is      544.6 secs

     total energy              =   -7377.48574697 Ry
     Harris-Foulkes estimate   =   -7380.89123595 Ry
     estimated scf accuracy    <       4.33374671 Ry

     iteration #  2     ecut=    50.00 Ry     beta=0.70
     Davidson diagonalization with overlap
     ethr =  5.42E-04,  avg # of iterations = 11.3

     negative rho (up, down):  1.930E+00 0.000E+00

     total cpu time spent up to now is     1242.2 secs

     total energy              =   -7369.45576652 Ry
     Harris-Foulkes estimate   =   -7387.54567941 Ry
     estimated scf accuracy    <      91.89778261 Ry

     iteration #  3     ecut=    50.00 Ry     beta=0.70
     Davidson diagonalization with overlap
     ethr =  5.42E-04,  avg # of iterations =  6.0

     negative rho (up, down):  1.946E+00 0.000E+00

     total cpu time spent up to now is     1693.0 secs

     total energy              =   -7378.51619586 Ry
     Harris-Foulkes estimate   =   -7380.68110167 Ry
     estimated scf accuracy    <       8.65273903 Ry

     iteration #  4     ecut=    50.00 Ry     beta=0.70
     Davidson diagonalization with overlap
     ethr =  5.42E-04,  avg # of iterations =  3.8

     negative rho (up, down):  1.950E+00 0.000E+00

     total cpu time spent up to now is     1937.4 secs

     total energy              =   -7379.29790191 Ry
     Harris-Foulkes estimate   =   -7380.50143121 Ry
     estimated scf accuracy    <       6.43444287 Ry

     iteration #  5     ecut=    50.00 Ry     beta=0.70
     Davidson diagonalization with overlap
     ethr =  5.42E-04,  avg # of iterations =  5.3

     negative rho (up, down):  1.958E+00 0.000E+00

     total cpu time spent up to now is     2194.9 secs

     total energy              =   -7379.60867204 Ry
     Harris-Foulkes estimate   =   -7380.37703220 Ry
     estimated scf accuracy    <       5.92453417 Ry

     iteration #  6     ecut=    50.00 Ry     beta=0.70
     Davidson diagonalization with overlap
     ethr =  5.42E-04,  avg # of iterations =  3.0

     negative rho (up, down):  1.962E+00 0.000E+00

     total cpu time spent up to now is     2428.0 secs

     total energy              =   -7379.92160146 Ry
     Harris-Foulkes estimate   =   -7380.01437420 Ry
     estimated scf accuracy    <       0.36509878 Ry

     iteration #  7     ecut=    50.00 Ry     beta=0.70
     Davidson diagonalization with overlap
     ethr =  4.56E-05,  avg # of iterations =  5.2

     negative rho (up, down):  1.966E+00 0.000E+00

     total cpu time spent up to now is     2707.5 secs

     total energy              =   -7379.94278836 Ry
     Harris-Foulkes estimate   =   -7379.99837678 Ry
     estimated scf accuracy    <       0.30840385 Ry

     iteration #  8     ecut=    50.00 Ry     beta=0.70
     Davidson diagonalization with overlap
     ethr =  3.86E-05,  avg # of iterations =  3.0

     negative rho (up, down):  1.968E+00 0.000E+00

     total cpu time spent up to now is     2926.6 secs

     total energy              =   -7379.95324962 Ry
     Harris-Foulkes estimate   =   -7379.97646617 Ry
     estimated scf accuracy    <       0.10274818 Ry

     iteration #  9     ecut=    50.00 Ry     beta=0.70
     Davidson diagonalization with overlap
     ethr =  1.28E-05,  avg # of iterations =  7.5

     negative rho (up, down):  1.969E+00 0.000E+00

     total cpu time spent up to now is     3203.9 secs

     total energy              =   -7379.95377493 Ry
     Harris-Foulkes estimate   =   -7379.96591658 Ry
     estimated scf accuracy    <       0.04189351 Ry

     iteration # 10     ecut=    50.00 Ry     beta=0.70
     Davidson diagonalization with overlap
     ethr =  5.24E-06,  avg # of iterations = 13.7

     negative rho (up, down):  1.969E+00 0.000E+00

     total cpu time spent up to now is     3556.4 secs

     total energy              =   -7379.95538665 Ry
     Harris-Foulkes estimate   =   -7379.95915600 Ry
     estimated scf accuracy    <       0.01078474 Ry

     iteration # 11     ecut=    50.00 Ry     beta=0.70
     Davidson diagonalization with overlap
     ethr =  1.35E-06,  avg # of iterations =  6.5

     negative rho (up, down):  1.970E+00 0.000E+00

     total cpu time spent up to now is     3829.5 secs

     total energy              =   -7379.95600095 Ry
     Harris-Foulkes estimate   =   -7379.95749682 Ry
     estimated scf accuracy    <       0.00435267 Ry

     iteration # 12     ecut=    50.00 Ry     beta=0.70
     Davidson diagonalization with overlap
     ethr =  5.44E-07,  avg # of iterations =  2.0

     negative rho (up, down):  1.971E+00 0.000E+00

     total cpu time spent up to now is     4038.7 secs

     total energy              =   -7379.95616927 Ry
     Harris-Foulkes estimate   =   -7379.95675045 Ry
     estimated scf accuracy    <       0.00116918 Ry

     iteration # 13     ecut=    50.00 Ry     beta=0.70
     Davidson diagonalization with overlap
     ethr =  1.46E-07,  avg # of iterations =  4.2

     negative rho (up, down):  1.971E+00 0.000E+00

     total cpu time spent up to now is     4354.4 secs

     total energy              =   -7379.95582452 Ry
     Harris-Foulkes estimate   =   -7379.95727739 Ry
     estimated scf accuracy    <       0.00678249 Ry

     iteration # 14     ecut=    50.00 Ry     beta=0.70
     Davidson diagonalization with overlap
     ethr =  1.46E-07,  avg # of iterations =  3.0

     negative rho (up, down):  1.970E+00 0.000E+00

     total cpu time spent up to now is     4619.9 secs

     total energy              =   -7379.95649477 Ry
     Harris-Foulkes estimate   =   -7379.95655249 Ry
     estimated scf accuracy    <       0.00015383 Ry

     iteration # 15     ecut=    50.00 Ry     beta=0.70
     Davidson diagonalization with overlap
     ethr =  1.92E-08,  avg # of iterations =  3.0

     negative rho (up, down):  1.970E+00 0.000E+00

     total cpu time spent up to now is     4884.5 secs

     total energy              =   -7379.95643866 Ry
     Harris-Foulkes estimate   =   -7379.95663244 Ry
     estimated scf accuracy    <       0.00131371 Ry

     iteration # 16     ecut=    50.00 Ry     beta=0.70
     Davidson diagonalization with overlap
     ethr =  1.92E-08,  avg # of iterations =  2.0

     negative rho (up, down):  1.970E+00 0.000E+00

     total cpu time spent up to now is     5117.1 secs

     total energy              =   -7379.95649859 Ry
     Harris-Foulkes estimate   =   -7379.95657652 Ry
     estimated scf accuracy    <       0.00061138 Ry

     iteration # 17     ecut=    50.00 Ry     beta=0.70
     Davidson diagonalization with overlap
     ethr =  1.92E-08,  avg # of iterations =  2.0

     negative rho (up, down):  1.970E+00 0.000E+00

     total cpu time spent up to now is     5325.4 secs

     total energy              =   -7379.95653730 Ry
     Harris-Foulkes estimate   =   -7379.95654085 Ry
     estimated scf accuracy    <       0.00001324 Ry

     iteration # 18     ecut=    50.00 Ry     beta=0.70
     Davidson diagonalization with overlap
     ethr =  1.65E-09,  avg # of iterations =  2.0

     negative rho (up, down):  1.970E+00 0.000E+00

     total cpu time spent up to now is     5559.1 secs

     total energy              =   -7379.95653724 Ry
     Harris-Foulkes estimate   =   -7379.95654132 Ry
     estimated scf accuracy    <       0.00001643 Ry

     iteration # 19     ecut=    50.00 Ry     beta=0.70
     Davidson diagonalization with overlap
     ethr =  1.65E-09,  avg # of iterations =  2.0

     negative rho (up, down):  1.970E+00 0.000E+00

     total cpu time spent up to now is     5768.1 secs

     total energy              =   -7379.95653891 Ry
     Harris-Foulkes estimate   =   -7379.95654039 Ry
     estimated scf accuracy    <       0.00000744 Ry

     iteration # 20     ecut=    50.00 Ry     beta=0.70
     Davidson diagonalization with overlap
     ethr =  9.30E-10,  avg # of iterations =  2.0

     negative rho (up, down):  1.970E+00 0.000E+00

     total cpu time spent up to now is     5976.1 secs

     total energy              =   -7379.95653958 Ry
     Harris-Foulkes estimate   =   -7379.95653980 Ry
     estimated scf accuracy    <       0.00000062 Ry

     iteration # 21     ecut=    50.00 Ry     beta=0.70
     Davidson diagonalization with overlap
     ethr =  7.69E-11,  avg # of iterations =  3.0

     negative rho (up, down):  1.970E+00 0.000E+00

     total cpu time spent up to now is     6225.2 secs

     total energy              =   -7379.95653963 Ry
     Harris-Foulkes estimate   =   -7379.95653979 Ry
     estimated scf accuracy    <       0.00000054 Ry

     iteration # 22     ecut=    50.00 Ry     beta=0.70
     Davidson diagonalization with overlap
     ethr =  6.76E-11,  avg # of iterations =  2.0

     negative rho (up, down):  1.970E+00 0.000E+00

     total cpu time spent up to now is     6446.7 secs

     total energy              =   -7379.95653970 Ry
     Harris-Foulkes estimate   =   -7379.95653974 Ry
     estimated scf accuracy    <       0.00000015 Ry

     iteration # 23     ecut=    50.00 Ry     beta=0.70
     Davidson diagonalization with overlap
     ethr =  1.83E-11,  avg # of iterations =  3.0

     negative rho (up, down):  1.970E+00 0.000E+00

     total cpu time spent up to now is     6695.2 secs

     total energy              =   -7379.95653970 Ry
     Harris-Foulkes estimate   =   -7379.95653973 Ry
     estimated scf accuracy    <       0.00000010 Ry

     iteration # 24     ecut=    50.00 Ry     beta=0.70
     Davidson diagonalization with overlap
     ethr =  1.21E-11,  avg # of iterations =  2.0

     negative rho (up, down):  1.970E+00 0.000E+00

     total cpu time spent up to now is     6931.4 secs

     total energy              =   -7379.95653972 Ry
     Harris-Foulkes estimate   =   -7379.95653973 Ry
     estimated scf accuracy    <       0.00000007 Ry

     iteration # 25     ecut=    50.00 Ry     beta=0.70
     Davidson diagonalization with overlap
     ethr =  8.91E-12,  avg # of iterations =  2.0

     negative rho (up, down):  1.970E+00 0.000E+00

     total cpu time spent up to now is     7137.0 secs

     End of self-consistent calculation

          k = 0.2500 0.2500 0.0833 (167653 PWs)   bands (ev):

   -19.5990  -7.4272  -6.9186  -6.3901  -6.3863  -5.9504  -5.5574  -5.4514
    -5.4460  -5.2272  -5.2250  -5.1511  -5.1276  -5.0033  -4.9863  -4.8814
    -4.7899  -4.7893  -4.7709  -4.7624  -4.6104  -4.5847  -4.5806  -4.5803
    -4.5517  -4.5493  -4.5438  -4.5284  -4.4932  -4.4896  -4.4892  -4.4264
    -4.4153  -4.3970  -4.3621  -4.3386  -4.3364  -4.3188  -4.3022  -4.2997
    -4.2865  -4.2813  -4.2623  -4.2539  -4.2232  -4.1944  -4.1934  -4.1868
    -4.1866  -4.1829  -4.1528  -4.1256  -4.1139  -4.0972  -4.0966  -4.0929
    -4.0920  -4.0845  -4.0695  -4.0526  -4.0523  -3.9925  -3.9726  -3.9609
    -3.9285  -3.9263  -3.9225  -3.9212  -3.8992  -3.8932  -3.8881  -3.8397
    -3.8351  -3.8329  -3.8313  -3.7477  -3.7462  -3.7246  -3.7216  -3.7017
    -3.6869  -3.6691  -3.6517  -3.6422  -3.6088  -3.6040  -3.6029  -3.5950
    -3.5827  -3.5779  -3.5066  -3.4961  -3.4954  -3.4757  -3.4702  -3.4695
    -3.4523  -3.4496  -3.4444  -3.4425  -3.4021  -3.3930  -3.3851  -3.3806
    -3.3465  -3.3407  -3.3199  -3.2966  -3.2934  -3.2504  -3.2473  -3.2165
    -3.1895  -3.1869  -3.1854  -3.1839  -3.1799  -3.1782  -3.1623  -3.1422
    -3.1087  -3.1056  -3.0835  -3.0613  -3.0585  -3.0543  -3.0517  -3.0505
    -3.0490  -3.0487  -3.0169  -3.0130  -3.0106  -3.0077  -3.0029  -3.0022
    -2.9451  -2.9430  -2.9386  -2.9352  -2.9175  -2.9166  -2.9102  -2.8184
    -2.8135  -2.8119  -2.8087  -2.7991  -2.7949  -2.7940  -2.7900  -2.7829
    -2.7810  -2.7755  -2.7658  -2.7614  -2.7564  -2.7533  -2.7471  -2.7462
    -2.7390  -2.7200  -2.7100  -2.7063  -2.6921  -2.6917  -2.6771  -2.6763
    -2.6651  -2.6646  -2.6439  -2.6401  -2.6352  -2.6318  -2.6212  -2.5963
    -2.5933  -2.5902  -2.5354  -2.5270  -2.5207  -2.5127  -2.5041  -2.4960
    -2.4882  -2.4806  -2.4719  -2.4653  -2.4643  -2.4595  -2.4494  -2.4339
    -2.4309  -2.4142  -2.4079  -2.3991  -2.3962  -2.3835  -2.3833  -2.3765
    -2.3524  -2.3286  -2.2865  -2.2681  -2.2482  -2.2433  -2.2330  -2.2322
    -2.1981  -2.1802  -2.1753  -2.1512  -2.1400  -2.1379  -2.1153  -2.1047
    -2.0966  -2.0863  -2.0742  -2.0703  -2.0513  -2.0480  -2.0372  -2.0321
    -2.0306  -2.0295  -2.0231  -1.9992  -1.9969  -1.9961  -1.9917  -1.9901
    -1.9876  -1.9868  -1.9759  -1.9604  -1.9552  -1.9502  -1.9495  -1.9365
    -1.9328  -1.9320  -1.9291  -1.9221  -1.9203  -1.8847  -1.8813  -1.8397
    -1.8251  -1.8232  -1.7939  -1.7878  -1.7790  -1.7740  -1.7728  -1.7591
    -1.7580  -1.7513  -1.7457  -1.7380  -1.7339  -1.7140  -1.7085  -1.6759
    -1.6710  -1.6575  -1.6458  -1.6395  -1.6048  -1.5979  -1.5915  -1.5477
    -1.5361  -1.5199  -1.5076  -1.4994  -1.4979  -1.4950  -1.4871  -1.4790
    -1.4747  -1.4728  -1.4700  -1.4685  -1.4666  -1.4664  -1.4538  -1.4436
    -1.4366  -1.4190  -1.4119  -1.4109  -1.4076  -1.3836  -1.3791  -1.3775
    -1.3765  -1.3651  -1.3427  -1.3326  -1.3238  -1.3111  -1.3084  -1.2948
    -1.2781  -1.2750  -1.2665  -1.2575  -1.2463  -1.2443  -1.2282  -1.2032
    -1.1995  -1.1958  -1.1902  -1.1900  -1.1754  -1.1643  -1.1636  -1.1570
    -1.1437  -1.1403  -1.1345  -1.1314  -1.1283  -1.1207  -1.1178  -1.1097
    -1.1008  -1.1000  -1.0960  -1.0899  -1.0796  -1.0752  -1.0734  -1.0337
    -1.0287  -1.0268  -1.0240  -1.0206  -1.0166  -0.9982  -0.9844  -0.9815
    -0.9615  -0.9548  -0.9538  -0.9490  -0.9468  -0.9363  -0.9313  -0.9039
    -0.8935  -0.8906  -0.8856  -0.8701  -0.8699  -0.8546  -0.8358  -0.8213
    -0.8076  -0.8033  -0.7683  -0.7675  -0.7645  -0.7602  -0.7571  -0.7555
    -0.7543  -0.7530  -0.7487  -0.7466  -0.7208  -0.7157  -0.7132  -0.7113
    -0.7093  -0.7011  -0.6971  -0.6755  -0.6706  -0.4197  -0.3964  -0.3552
    -0.3307  -0.3218  -0.2619  -0.1134  -0.1128  -0.0656   0.1987   0.2129
     0.5421   0.5605   0.5843   0.5891   0.6363   0.6410   0.7936   0.8152
     0.9219   0.9276   1.0536   1.5404   1.5597   1.5833   1.6175   1.6182
     1.7539   1.7736   1.8103   1.8262   1.9910   1.9970   2.2844   2.3054
     2.3130   2.3286   2.7610   2.7686   2.7788   2.7903   2.8021   2.8035
     2.8645   2.8685   3.0281   3.1448   3.1652   3.3362   3.3465   3.4401
     3.5108   3.5186   3.8128   3.8251   3.8656   3.8708   3.8742   4.0148
     4.0197   4.0484   4.0552   4.3117   4.3141   4.3502   4.3598   4.4581
     4.4763   4.5333   4.5345   4.8224   5.4087   5.4189   5.5043   5.5071
     5.6229   5.6311   5.6825   5.7000   5.7112   5.7127   5.8204   5.8264
     5.8395   6.0007   6.0753   6.1111   6.1128   6.1299   6.1329   6.1417
     6.2217   6.2253   6.3105   6.3363   6.4335   6.4367   6.4533   6.4607

          k = 0.2500 0.2500-0.2500 (167588 PWs)   bands (ev):

   -19.5990  -7.4272  -6.9186  -6.3901  -6.3863  -5.9504  -5.5574  -5.4514
    -5.4460  -5.2272  -5.2250  -5.1511  -5.1276  -5.0033  -4.9863  -4.8814
    -4.7899  -4.7893  -4.7709  -4.7624  -4.6104  -4.5847  -4.5806  -4.5803
    -4.5517  -4.5493  -4.5438  -4.5284  -4.4932  -4.4896  -4.4892  -4.4264
    -4.4153  -4.3970  -4.3621  -4.3386  -4.3364  -4.3188  -4.3022  -4.2997
    -4.2865  -4.2813  -4.2623  -4.2539  -4.2232  -4.1944  -4.1934  -4.1868
    -4.1866  -4.1829  -4.1528  -4.1256  -4.1139  -4.0972  -4.0966  -4.0929
    -4.0920  -4.0845  -4.0695  -4.0526  -4.0523  -3.9925  -3.9726  -3.9609
    -3.9285  -3.9263  -3.9225  -3.9212  -3.8991  -3.8932  -3.8881  -3.8397
    -3.8351  -3.8329  -3.8313  -3.7477  -3.7462  -3.7246  -3.7216  -3.7017
    -3.6869  -3.6691  -3.6517  -3.6422  -3.6088  -3.6040  -3.6029  -3.5950
    -3.5827  -3.5779  -3.5066  -3.4961  -3.4954  -3.4757  -3.4702  -3.4695
    -3.4523  -3.4496  -3.4444  -3.4425  -3.4021  -3.3930  -3.3851  -3.3806
    -3.3465  -3.3407  -3.3199  -3.2966  -3.2934  -3.2504  -3.2473  -3.2165
    -3.1895  -3.1869  -3.1854  -3.1839  -3.1799  -3.1782  -3.1624  -3.1422
    -3.1086  -3.1056  -3.0835  -3.0613  -3.0585  -3.0543  -3.0517  -3.0505
    -3.0490  -3.0487  -3.0169  -3.0130  -3.0106  -3.0077  -3.0029  -3.0022
    -2.9451  -2.9430  -2.9386  -2.9352  -2.9175  -2.9166  -2.9101  -2.8184
    -2.8135  -2.8119  -2.8087  -2.7991  -2.7949  -2.7940  -2.7900  -2.7829
    -2.7810  -2.7755  -2.7658  -2.7614  -2.7564  -2.7533  -2.7471  -2.7462
    -2.7390  -2.7200  -2.7100  -2.7063  -2.6921  -2.6917  -2.6771  -2.6763
    -2.6651  -2.6646  -2.6439  -2.6401  -2.6352  -2.6318  -2.6212  -2.5963
    -2.5933  -2.5902  -2.5354  -2.5270  -2.5207  -2.5127  -2.5041  -2.4960
    -2.4882  -2.4805  -2.4719  -2.4653  -2.4643  -2.4595  -2.4494  -2.4339
    -2.4309  -2.4142  -2.4079  -2.3991  -2.3962  -2.3835  -2.3833  -2.3765
    -2.3524  -2.3286  -2.2865  -2.2681  -2.2482  -2.2433  -2.2330  -2.2322
    -2.1981  -2.1801  -2.1753  -2.1512  -2.1400  -2.1379  -2.1153  -2.1047
    -2.0966  -2.0863  -2.0742  -2.0703  -2.0513  -2.0479  -2.0372  -2.0321
    -2.0306  -2.0295  -2.0231  -1.9992  -1.9969  -1.9961  -1.9917  -1.9901
    -1.9876  -1.9868  -1.9759  -1.9604  -1.9552  -1.9502  -1.9495  -1.9364
    -1.9328  -1.9320  -1.9291  -1.9221  -1.9203  -1.8846  -1.8813  -1.8397
    -1.8251  -1.8232  -1.7939  -1.7878  -1.7790  -1.7740  -1.7728  -1.7591
    -1.7580  -1.7513  -1.7457  -1.7380  -1.7339  -1.7140  -1.7085  -1.6759
    -1.6710  -1.6575  -1.6458  -1.6394  -1.6048  -1.5979  -1.5915  -1.5477
    -1.5361  -1.5199  -1.5076  -1.4994  -1.4979  -1.4950  -1.4871  -1.4790
    -1.4747  -1.4728  -1.4700  -1.4685  -1.4666  -1.4664  -1.4538  -1.4436
    -1.4366  -1.4190  -1.4119  -1.4110  -1.4076  -1.3836  -1.3791  -1.3775
    -1.3765  -1.3650  -1.3427  -1.3326  -1.3238  -1.3111  -1.3084  -1.2948
    -1.2781  -1.2750  -1.2665  -1.2576  -1.2463  -1.2443  -1.2282  -1.2032
    -1.1995  -1.1958  -1.1902  -1.1900  -1.1754  -1.1643  -1.1636  -1.1570
    -1.1437  -1.1403  -1.1345  -1.1314  -1.1283  -1.1207  -1.1178  -1.1097
    -1.1008  -1.1000  -1.0960  -1.0899  -1.0796  -1.0752  -1.0734  -1.0337
    -1.0287  -1.0268  -1.0240  -1.0207  -1.0166  -0.9982  -0.9844  -0.9815
    -0.9615  -0.9548  -0.9538  -0.9490  -0.9468  -0.9363  -0.9313  -0.9039
    -0.8935  -0.8906  -0.8856  -0.8701  -0.8699  -0.8546  -0.8358  -0.8213
    -0.8076  -0.8033  -0.7683  -0.7675  -0.7645  -0.7602  -0.7571  -0.7555
    -0.7543  -0.7530  -0.7487  -0.7466  -0.7208  -0.7157  -0.7132  -0.7113
    -0.7093  -0.7011  -0.6971  -0.6755  -0.6706  -0.4197  -0.3964  -0.3552
    -0.3307  -0.3218  -0.2619  -0.1134  -0.1128  -0.0656   0.1987   0.2129
     0.5421   0.5605   0.5843   0.5891   0.6363   0.6410   0.7937   0.8152
     0.9219   0.9276   1.0535   1.5404   1.5597   1.5833   1.6175   1.6182
     1.7539   1.7736   1.8103   1.8262   1.9910   1.9970   2.2844   2.3054
     2.3130   2.3286   2.7610   2.7686   2.7788   2.7903   2.8021   2.8035
     2.8645   2.8685   3.0281   3.1448   3.1652   3.3362   3.3465   3.4401
     3.5108   3.5186   3.8128   3.8251   3.8656   3.8708   3.8742   4.0148
     4.0197   4.0484   4.0552   4.3117   4.3141   4.3502   4.3598   4.4581
     4.4763   4.5333   4.5345   4.8225   5.4087   5.4189   5.5044   5.5072
     5.6229   5.6311   5.6825   5.7000   5.7111   5.7128   5.7795   5.8244
     5.8271   6.0754   6.1110   6.1128   6.1294   6.1309   6.1417   6.1725
     6.1774   6.1802   6.3107   6.3366   6.4018   6.4510   6.4538   6.5213

          k =-0.2500-0.2500 0.0833 (167653 PWs)   bands (ev):

   -19.5990  -7.4272  -6.9186  -6.3901  -6.3863  -5.9504  -5.5574  -5.4514
    -5.4460  -5.2272  -5.2250  -5.1511  -5.1276  -5.0033  -4.9863  -4.8814
    -4.7899  -4.7893  -4.7709  -4.7624  -4.6104  -4.5847  -4.5806  -4.5803
    -4.5517  -4.5493  -4.5438  -4.5284  -4.4932  -4.4896  -4.4892  -4.4264
    -4.4153  -4.3970  -4.3621  -4.3386  -4.3364  -4.3188  -4.3022  -4.2997
    -4.2865  -4.2813  -4.2623  -4.2539  -4.2232  -4.1944  -4.1934  -4.1868
    -4.1866  -4.1829  -4.1528  -4.1256  -4.1139  -4.0972  -4.0966  -4.0929
    -4.0920  -4.0845  -4.0695  -4.0526  -4.0523  -3.9925  -3.9726  -3.9609
    -3.9285  -3.9263  -3.9225  -3.9212  -3.8992  -3.8932  -3.8881  -3.8397
    -3.8351  -3.8329  -3.8313  -3.7477  -3.7462  -3.7246  -3.7216  -3.7017
    -3.6869  -3.6691  -3.6517  -3.6422  -3.6088  -3.6040  -3.6029  -3.5950
    -3.5827  -3.5779  -3.5066  -3.4961  -3.4954  -3.4757  -3.4702  -3.4695
    -3.4523  -3.4496  -3.4444  -3.4425  -3.4021  -3.3930  -3.3851  -3.3806
    -3.3465  -3.3407  -3.3199  -3.2966  -3.2934  -3.2504  -3.2473  -3.2165
    -3.1895  -3.1869  -3.1854  -3.1839  -3.1799  -3.1782  -3.1623  -3.1422
    -3.1087  -3.1056  -3.0835  -3.0613  -3.0585  -3.0543  -3.0517  -3.0505
    -3.0490  -3.0487  -3.0169  -3.0130  -3.0106  -3.0077  -3.0029  -3.0022
    -2.9451  -2.9430  -2.9386  -2.9352  -2.9175  -2.9166  -2.9102  -2.8184
    -2.8135  -2.8119  -2.8087  -2.7991  -2.7949  -2.7940  -2.7900  -2.7829
    -2.7810  -2.7755  -2.7658  -2.7614  -2.7564  -2.7533  -2.7471  -2.7462
    -2.7390  -2.7200  -2.7100  -2.7063  -2.6921  -2.6917  -2.6771  -2.6763
    -2.6651  -2.6646  -2.6439  -2.6401  -2.6352  -2.6318  -2.6212  -2.5963
    -2.5933  -2.5902  -2.5354  -2.5270  -2.5207  -2.5127  -2.5041  -2.4960
    -2.4882  -2.4806  -2.4719  -2.4653  -2.4643  -2.4595  -2.4494  -2.4339
    -2.4309  -2.4142  -2.4079  -2.3991  -2.3962  -2.3835  -2.3833  -2.3765
    -2.3524  -2.3286  -2.2865  -2.2681  -2.2482  -2.2433  -2.2330  -2.2322
    -2.1981  -2.1802  -2.1753  -2.1512  -2.1400  -2.1379  -2.1153  -2.1047
    -2.0966  -2.0863  -2.0742  -2.0703  -2.0513  -2.0480  -2.0372  -2.0321
    -2.0306  -2.0295  -2.0231  -1.9992  -1.9969  -1.9961  -1.9917  -1.9901
    -1.9876  -1.9868  -1.9759  -1.9604  -1.9552  -1.9502  -1.9495  -1.9365
    -1.9328  -1.9320  -1.9291  -1.9221  -1.9203  -1.8847  -1.8813  -1.8397
    -1.8251  -1.8232  -1.7939  -1.7878  -1.7790  -1.7740  -1.7728  -1.7591
    -1.7580  -1.7513  -1.7457  -1.7380  -1.7339  -1.7140  -1.7085  -1.6759
    -1.6710  -1.6575  -1.6458  -1.6395  -1.6048  -1.5979  -1.5915  -1.5477
    -1.5361  -1.5199  -1.5076  -1.4994  -1.4979  -1.4950  -1.4871  -1.4790
    -1.4747  -1.4728  -1.4700  -1.4685  -1.4666  -1.4664  -1.4538  -1.4436
    -1.4366  -1.4190  -1.4119  -1.4109  -1.4076  -1.3836  -1.3791  -1.3775
    -1.3765  -1.3651  -1.3427  -1.3326  -1.3238  -1.3111  -1.3084  -1.2948
    -1.2781  -1.2750  -1.2665  -1.2575  -1.2463  -1.2443  -1.2282  -1.2032
    -1.1995  -1.1958  -1.1902  -1.1900  -1.1754  -1.1643  -1.1636  -1.1570
    -1.1437  -1.1403  -1.1345  -1.1314  -1.1283  -1.1207  -1.1178  -1.1097
    -1.1008  -1.1000  -1.0960  -1.0899  -1.0796  -1.0752  -1.0734  -1.0337
    -1.0287  -1.0268  -1.0240  -1.0206  -1.0166  -0.9982  -0.9844  -0.9815
    -0.9615  -0.9548  -0.9538  -0.9490  -0.9468  -0.9363  -0.9313  -0.9039
    -0.8935  -0.8906  -0.8856  -0.8701  -0.8699  -0.8546  -0.8358  -0.8213
    -0.8076  -0.8033  -0.7683  -0.7675  -0.7645  -0.7602  -0.7571  -0.7555
    -0.7543  -0.7530  -0.7487  -0.7466  -0.7208  -0.7157  -0.7132  -0.7113
    -0.7093  -0.7011  -0.6971  -0.6755  -0.6706  -0.4197  -0.3964  -0.3552
    -0.3307  -0.3218  -0.2619  -0.1134  -0.1128  -0.0656   0.1987   0.2129
     0.5421   0.5605   0.5843   0.5891   0.6363   0.6410   0.7936   0.8152
     0.9219   0.9276   1.0536   1.5404   1.5597   1.5833   1.6175   1.6182
     1.7539   1.7736   1.8103   1.8262   1.9910   1.9970   2.2844   2.3054
     2.3130   2.3286   2.7610   2.7686   2.7788   2.7903   2.8021   2.8035
     2.8645   2.8685   3.0281   3.1448   3.1652   3.3362   3.3465   3.4401
     3.5108   3.5186   3.8128   3.8251   3.8656   3.8708   3.8742   4.0148
     4.0197   4.0484   4.0552   4.3117   4.3141   4.3502   4.3598   4.4581
     4.4763   4.5333   4.5345   4.8224   5.4087   5.4189   5.5043   5.5071
     5.6229   5.6311   5.6825   5.7000   5.7112   5.7127   5.8204   5.8264
     5.8395   6.0007   6.0754   6.1111   6.1128   6.1299   6.1329   6.1417
     6.2217   6.2253   6.3105   6.3363   6.4335   6.4366   6.4533   6.4607

          k =-0.2500 0.2500-0.0833 (167653 PWs)   bands (ev):

   -19.5990  -7.4272  -6.9184  -6.3922  -6.3846  -5.9499  -5.5569  -5.4525
    -5.4444  -5.2283  -5.2252  -5.1553  -5.1255  -5.0002  -4.9862  -4.8793
    -4.7972  -4.7898  -4.7730  -4.7619  -4.6034  -4.5848  -4.5808  -4.5792
    -4.5516  -4.5494  -4.5438  -4.5237  -4.4913  -4.4906  -4.4879  -4.4266
    -4.4171  -4.3968  -4.3625  -4.3384  -4.3367  -4.3242  -4.3021  -4.2981
    -4.2867  -4.2812  -4.2623  -4.2513  -4.2272  -4.1959  -4.1914  -4.1874
    -4.1858  -4.1856  -4.1581  -4.1247  -4.1139  -4.0977  -4.0954  -4.0940
    -4.0914  -4.0847  -4.0701  -4.0510  -4.0485  -3.9905  -3.9807  -3.9611
    -3.9302  -3.9261  -3.9210  -3.9201  -3.8988  -3.8907  -3.8886  -3.8401
    -3.8350  -3.8314  -3.8299  -3.7463  -3.7455  -3.7231  -3.7227  -3.7016
    -3.6875  -3.6694  -3.6528  -3.6405  -3.6090  -3.6027  -3.6022  -3.5978
    -3.5812  -3.5757  -3.5108  -3.4956  -3.4953  -3.4753  -3.4718  -3.4680
    -3.4538  -3.4487  -3.4448  -3.4420  -3.4030  -3.3918  -3.3860  -3.3774
    -3.3481  -3.3383  -3.3203  -3.2996  -3.2930  -3.2509  -3.2457  -3.2145
    -3.1875  -3.1864  -3.1853  -3.1841  -3.1799  -3.1789  -3.1626  -3.1420
    -3.1094  -3.1059  -3.0839  -3.0602  -3.0585  -3.0572  -3.0522  -3.0494
    -3.0484  -3.0475  -3.0179  -3.0164  -3.0096  -3.0088  -3.0032  -3.0004
    -2.9465  -2.9462  -2.9385  -2.9338  -2.9172  -2.9143  -2.9088  -2.8179
    -2.8155  -2.8145  -2.8077  -2.7986  -2.7963  -2.7936  -2.7904  -2.7828
    -2.7806  -2.7746  -2.7688  -2.7627  -2.7565  -2.7543  -2.7484  -2.7465
    -2.7386  -2.7191  -2.7074  -2.7046  -2.6931  -2.6915  -2.6790  -2.6750
    -2.6658  -2.6637  -2.6446  -2.6425  -2.6364  -2.6321  -2.6213  -2.5937
    -2.5925  -2.5902  -2.5350  -2.5278  -2.5263  -2.5134  -2.5055  -2.4954
    -2.4853  -2.4845  -2.4722  -2.4676  -2.4604  -2.4518  -2.4458  -2.4349
    -2.4288  -2.4104  -2.4062  -2.3951  -2.3944  -2.3851  -2.3838  -2.3649
    -2.3544  -2.3277  -2.2790  -2.2748  -2.2474  -2.2433  -2.2349  -2.2305
    -2.1900  -2.1825  -2.1781  -2.1573  -2.1451  -2.1368  -2.1159  -2.1024
    -2.0984  -2.0870  -2.0794  -2.0711  -2.0594  -2.0444  -2.0437  -2.0315
    -2.0302  -2.0289  -2.0271  -2.0042  -1.9965  -1.9930  -1.9919  -1.9895
    -1.9877  -1.9853  -1.9757  -1.9592  -1.9562  -1.9525  -1.9503  -1.9383
    -1.9344  -1.9300  -1.9261  -1.9231  -1.9203  -1.8851  -1.8805  -1.8480
    -1.8393  -1.8229  -1.8155  -1.7809  -1.7796  -1.7752  -1.7632  -1.7628
    -1.7506  -1.7472  -1.7461  -1.7407  -1.7322  -1.7155  -1.7082  -1.6752
    -1.6721  -1.6573  -1.6416  -1.6356  -1.6126  -1.5925  -1.5594  -1.5478
    -1.5450  -1.5242  -1.5043  -1.4988  -1.4977  -1.4973  -1.4828  -1.4812
    -1.4742  -1.4712  -1.4695  -1.4686  -1.4674  -1.4653  -1.4542  -1.4468
    -1.4363  -1.4232  -1.4110  -1.4066  -1.3936  -1.3868  -1.3780  -1.3769
    -1.3748  -1.3598  -1.3575  -1.3312  -1.3172  -1.3147  -1.3010  -1.2952
    -1.2840  -1.2758  -1.2696  -1.2514  -1.2505  -1.2393  -1.2374  -1.2086
    -1.1987  -1.1930  -1.1892  -1.1889  -1.1809  -1.1698  -1.1617  -1.1520
    -1.1436  -1.1391  -1.1361  -1.1289  -1.1256  -1.1239  -1.1191  -1.1110
    -1.1022  -1.1018  -1.0984  -1.0943  -1.0778  -1.0749  -1.0719  -1.0374
    -1.0284  -1.0282  -1.0222  -1.0207  -1.0177  -0.9849  -0.9835  -0.9729
    -0.9634  -0.9574  -0.9503  -0.9486  -0.9447  -0.9345  -0.9308  -0.9003
    -0.8987  -0.8899  -0.8880  -0.8717  -0.8694  -0.8540  -0.8315  -0.8216
    -0.8097  -0.8017  -0.7737  -0.7668  -0.7626  -0.7604  -0.7599  -0.7553
    -0.7532  -0.7526  -0.7486  -0.7474  -0.7181  -0.7137  -0.7110  -0.7092
    -0.7050  -0.7024  -0.6958  -0.6878  -0.6700  -0.4204  -0.3962  -0.3483
    -0.3352  -0.3235  -0.2696  -0.1187  -0.1111  -0.0678   0.2056   0.2079
     0.5481   0.5546   0.5814   0.5887   0.6318   0.6393   0.8043   0.8080
     0.9226   0.9288   1.0531   1.5360   1.5758   1.5837   1.6162   1.6203
     1.7630   1.7659   1.8161   1.8166   1.9895   1.9969   2.2888   2.3049
     2.3116   2.3278   2.7699   2.7710   2.7831   2.7861   2.7966   2.8057
     2.8635   2.8696   3.0302   3.1413   3.1533   3.3272   3.3387   3.4404
     3.5133   3.5190   3.8117   3.8193   3.8691   3.8754   3.8830   3.9995
     4.0237   4.0402   4.0624   4.3050   4.3188   4.3543   4.3595   4.4674
     4.4681   4.5447   4.5477   4.8358   5.3996   5.4156   5.5046   5.5221
     5.6074   5.6273   5.6856   5.7008   5.7014   5.7154   5.8168   5.8207
     5.8356   5.9979   6.0754   6.1113   6.1171   6.1240   6.1299   6.1424
     6.2080   6.2351   6.2964   6.3375   6.4331   6.4415   6.4447   6.4635

          k = 0.2500-0.2500-0.0833 (167653 PWs)   bands (ev):

   -19.5990  -7.4272  -6.9184  -6.3922  -6.3846  -5.9499  -5.5569  -5.4525
    -5.4444  -5.2283  -5.2252  -5.1553  -5.1255  -5.0002  -4.9862  -4.8793
    -4.7972  -4.7898  -4.7730  -4.7619  -4.6034  -4.5848  -4.5808  -4.5792
    -4.5516  -4.5494  -4.5438  -4.5237  -4.4913  -4.4906  -4.4879  -4.4266
    -4.4171  -4.3968  -4.3625  -4.3384  -4.3367  -4.3242  -4.3021  -4.2981
    -4.2867  -4.2812  -4.2623  -4.2513  -4.2272  -4.1959  -4.1914  -4.1874
    -4.1858  -4.1856  -4.1581  -4.1247  -4.1139  -4.0977  -4.0954  -4.0940
    -4.0914  -4.0847  -4.0701  -4.0510  -4.0485  -3.9905  -3.9807  -3.9611
    -3.9302  -3.9261  -3.9210  -3.9201  -3.8988  -3.8907  -3.8886  -3.8401
    -3.8350  -3.8314  -3.8299  -3.7463  -3.7455  -3.7231  -3.7227  -3.7016
    -3.6875  -3.6694  -3.6528  -3.6405  -3.6090  -3.6027  -3.6022  -3.5978
    -3.5812  -3.5757  -3.5108  -3.4956  -3.4953  -3.4753  -3.4718  -3.4680
    -3.4538  -3.4487  -3.4448  -3.4420  -3.4030  -3.3918  -3.3860  -3.3774
    -3.3481  -3.3383  -3.3203  -3.2996  -3.2930  -3.2509  -3.2457  -3.2145
    -3.1875  -3.1864  -3.1853  -3.1841  -3.1799  -3.1789  -3.1626  -3.1420
    -3.1094  -3.1059  -3.0839  -3.0602  -3.0585  -3.0572  -3.0522  -3.0494
    -3.0484  -3.0475  -3.0179  -3.0164  -3.0096  -3.0088  -3.0032  -3.0004
    -2.9465  -2.9462  -2.9385  -2.9338  -2.9172  -2.9143  -2.9088  -2.8179
    -2.8155  -2.8145  -2.8077  -2.7986  -2.7963  -2.7936  -2.7904  -2.7828
    -2.7806  -2.7746  -2.7688  -2.7627  -2.7565  -2.7543  -2.7484  -2.7465
    -2.7386  -2.7191  -2.7074  -2.7046  -2.6931  -2.6915  -2.6790  -2.6750
    -2.6658  -2.6637  -2.6446  -2.6425  -2.6364  -2.6321  -2.6213  -2.5937
    -2.5925  -2.5902  -2.5350  -2.5278  -2.5263  -2.5134  -2.5055  -2.4954
    -2.4853  -2.4845  -2.4722  -2.4676  -2.4604  -2.4518  -2.4458  -2.4349
    -2.4288  -2.4104  -2.4062  -2.3951  -2.3944  -2.3851  -2.3838  -2.3649
    -2.3544  -2.3277  -2.2790  -2.2748  -2.2474  -2.2433  -2.2349  -2.2305
    -2.1900  -2.1825  -2.1781  -2.1573  -2.1451  -2.1368  -2.1159  -2.1024
    -2.0984  -2.0870  -2.0794  -2.0711  -2.0594  -2.0444  -2.0437  -2.0315
    -2.0302  -2.0289  -2.0271  -2.0042  -1.9965  -1.9930  -1.9919  -1.9895
    -1.9877  -1.9853  -1.9757  -1.9592  -1.9562  -1.9525  -1.9503  -1.9383
    -1.9344  -1.9300  -1.9261  -1.9231  -1.9203  -1.8851  -1.8805  -1.8480
    -1.8393  -1.8229  -1.8155  -1.7809  -1.7796  -1.7752  -1.7632  -1.7628
    -1.7506  -1.7472  -1.7461  -1.7407  -1.7322  -1.7155  -1.7082  -1.6752
    -1.6721  -1.6573  -1.6416  -1.6356  -1.6126  -1.5925  -1.5594  -1.5478
    -1.5450  -1.5242  -1.5043  -1.4988  -1.4977  -1.4973  -1.4828  -1.4812
    -1.4742  -1.4712  -1.4695  -1.4686  -1.4674  -1.4653  -1.4542  -1.4468
    -1.4363  -1.4232  -1.4110  -1.4066  -1.3936  -1.3868  -1.3780  -1.3769
    -1.3748  -1.3598  -1.3575  -1.3312  -1.3172  -1.3147  -1.3010  -1.2952
    -1.2840  -1.2758  -1.2696  -1.2514  -1.2505  -1.2393  -1.2374  -1.2086
    -1.1987  -1.1930  -1.1892  -1.1889  -1.1809  -1.1698  -1.1617  -1.1520
    -1.1436  -1.1391  -1.1361  -1.1289  -1.1256  -1.1239  -1.1191  -1.1110
    -1.1022  -1.1018  -1.0984  -1.0943  -1.0778  -1.0749  -1.0719  -1.0374
    -1.0284  -1.0282  -1.0222  -1.0207  -1.0177  -0.9849  -0.9835  -0.9729
    -0.9634  -0.9574  -0.9503  -0.9486  -0.9447  -0.9345  -0.9308  -0.9003
    -0.8987  -0.8899  -0.8880  -0.8717  -0.8694  -0.8540  -0.8315  -0.8216
    -0.8097  -0.8017  -0.7737  -0.7668  -0.7626  -0.7604  -0.7599  -0.7553
    -0.7532  -0.7526  -0.7486  -0.7474  -0.7181  -0.7137  -0.7110  -0.7092
    -0.7050  -0.7024  -0.6958  -0.6878  -0.6700  -0.4204  -0.3962  -0.3483
    -0.3352  -0.3235  -0.2696  -0.1187  -0.1111  -0.0678   0.2056   0.2079
     0.5481   0.5546   0.5814   0.5887   0.6318   0.6393   0.8043   0.8080
     0.9226   0.9288   1.0531   1.5360   1.5758   1.5837   1.6162   1.6203
     1.7630   1.7659   1.8161   1.8166   1.9895   1.9969   2.2888   2.3049
     2.3116   2.3278   2.7699   2.7710   2.7831   2.7861   2.7966   2.8057
     2.8635   2.8696   3.0302   3.1413   3.1533   3.3272   3.3387   3.4404
     3.5133   3.5190   3.8117   3.8193   3.8691   3.8754   3.8830   3.9995
     4.0237   4.0402   4.0624   4.3050   4.3188   4.3543   4.3595   4.4674
     4.4681   4.5447   4.5477   4.8358   5.3996   5.4156   5.5046   5.5221
     5.6074   5.6273   5.6856   5.7008   5.7014   5.7154   5.8168   5.8206
     5.8356   5.9980   6.0754   6.1112   6.1171   6.1240   6.1299   6.1424
     6.2079   6.2352   6.2964   6.3375   6.4327   6.4424   6.4620   6.5202

          k =-0.2500 0.2500 0.2500 (167588 PWs)   bands (ev):

   -19.5990  -7.4272  -6.9184  -6.3922  -6.3846  -5.9499  -5.5569  -5.4525
    -5.4444  -5.2283  -5.2252  -5.1553  -5.1255  -5.0002  -4.9861  -4.8793
    -4.7972  -4.7898  -4.7730  -4.7619  -4.6034  -4.5848  -4.5808  -4.5792
    -4.5516  -4.5494  -4.5438  -4.5237  -4.4913  -4.4906  -4.4879  -4.4266
    -4.4171  -4.3968  -4.3625  -4.3384  -4.3367  -4.3242  -4.3021  -4.2981
    -4.2867  -4.2812  -4.2623  -4.2513  -4.2272  -4.1959  -4.1914  -4.1874
    -4.1858  -4.1856  -4.1581  -4.1247  -4.1139  -4.0977  -4.0954  -4.0940
    -4.0914  -4.0848  -4.0701  -4.0510  -4.0485  -3.9905  -3.9807  -3.9611
    -3.9302  -3.9260  -3.9210  -3.9201  -3.8988  -3.8907  -3.8886  -3.8401
    -3.8350  -3.8314  -3.8299  -3.7463  -3.7455  -3.7231  -3.7227  -3.7016
    -3.6875  -3.6694  -3.6528  -3.6405  -3.6090  -3.6027  -3.6022  -3.5978
    -3.5812  -3.5757  -3.5108  -3.4956  -3.4953  -3.4753  -3.4718  -3.4680
    -3.4538  -3.4487  -3.4448  -3.4420  -3.4030  -3.3918  -3.3860  -3.3774
    -3.3481  -3.3383  -3.3203  -3.2996  -3.2930  -3.2509  -3.2457  -3.2145
    -3.1875  -3.1864  -3.1853  -3.1841  -3.1799  -3.1789  -3.1627  -3.1420
    -3.1094  -3.1059  -3.0839  -3.0602  -3.0585  -3.0572  -3.0522  -3.0494
    -3.0484  -3.0475  -3.0179  -3.0164  -3.0096  -3.0087  -3.0032  -3.0004
    -2.9465  -2.9462  -2.9385  -2.9338  -2.9172  -2.9143  -2.9088  -2.8179
    -2.8155  -2.8145  -2.8078  -2.7986  -2.7963  -2.7936  -2.7904  -2.7828
    -2.7806  -2.7746  -2.7688  -2.7627  -2.7565  -2.7543  -2.7484  -2.7465
    -2.7386  -2.7191  -2.7074  -2.7046  -2.6931  -2.6915  -2.6790  -2.6750
    -2.6658  -2.6637  -2.6446  -2.6425  -2.6364  -2.6321  -2.6213  -2.5937
    -2.5925  -2.5902  -2.5350  -2.5278  -2.5263  -2.5134  -2.5055  -2.4954
    -2.4853  -2.4845  -2.4722  -2.4676  -2.4604  -2.4518  -2.4458  -2.4349
    -2.4288  -2.4104  -2.4062  -2.3951  -2.3944  -2.3851  -2.3838  -2.3649
    -2.3544  -2.3277  -2.2790  -2.2748  -2.2474  -2.2433  -2.2349  -2.2305
    -2.1900  -2.1825  -2.1781  -2.1573  -2.1451  -2.1368  -2.1159  -2.1024
    -2.0984  -2.0870  -2.0794  -2.0711  -2.0594  -2.0444  -2.0437  -2.0315
    -2.0302  -2.0289  -2.0271  -2.0042  -1.9965  -1.9930  -1.9919  -1.9895
    -1.9877  -1.9853  -1.9757  -1.9592  -1.9562  -1.9525  -1.9503  -1.9383
    -1.9344  -1.9300  -1.9261  -1.9231  -1.9203  -1.8851  -1.8805  -1.8480
    -1.8393  -1.8229  -1.8155  -1.7809  -1.7796  -1.7752  -1.7632  -1.7628
    -1.7505  -1.7472  -1.7461  -1.7407  -1.7322  -1.7155  -1.7082  -1.6752
    -1.6721  -1.6573  -1.6416  -1.6356  -1.6126  -1.5925  -1.5594  -1.5478
    -1.5450  -1.5242  -1.5043  -1.4988  -1.4977  -1.4973  -1.4828  -1.4812
    -1.4742  -1.4712  -1.4695  -1.4686  -1.4674  -1.4653  -1.4542  -1.4468
    -1.4363  -1.4232  -1.4110  -1.4066  -1.3936  -1.3868  -1.3780  -1.3769
    -1.3748  -1.3598  -1.3575  -1.3312  -1.3172  -1.3147  -1.3010  -1.2952
    -1.2840  -1.2758  -1.2696  -1.2514  -1.2505  -1.2393  -1.2374  -1.2086
    -1.1987  -1.1930  -1.1892  -1.1889  -1.1809  -1.1698  -1.1617  -1.1520
    -1.1436  -1.1391  -1.1361  -1.1289  -1.1256  -1.1239  -1.1191  -1.1110
    -1.1022  -1.1018  -1.0984  -1.0943  -1.0778  -1.0749  -1.0719  -1.0374
    -1.0284  -1.0282  -1.0222  -1.0207  -1.0177  -0.9849  -0.9835  -0.9729
    -0.9634  -0.9573  -0.9503  -0.9486  -0.9447  -0.9345  -0.9308  -0.9003
    -0.8987  -0.8899  -0.8880  -0.8717  -0.8694  -0.8540  -0.8315  -0.8216
    -0.8097  -0.8017  -0.7737  -0.7668  -0.7626  -0.7604  -0.7599  -0.7553
    -0.7532  -0.7526  -0.7486  -0.7474  -0.7181  -0.7137  -0.7110  -0.7092
    -0.7050  -0.7024  -0.6958  -0.6878  -0.6700  -0.4204  -0.3962  -0.3483
    -0.3352  -0.3235  -0.2696  -0.1187  -0.1111  -0.0678   0.2056   0.2079
     0.5481   0.5546   0.5814   0.5887   0.6318   0.6393   0.8043   0.8081
     0.9226   0.9288   1.0531   1.5360   1.5758   1.5837   1.6162   1.6203
     1.7630   1.7659   1.8161   1.8166   1.9895   1.9969   2.2888   2.3049
     2.3116   2.3278   2.7699   2.7710   2.7831   2.7861   2.7966   2.8057
     2.8635   2.8696   3.0303   3.1413   3.1533   3.3272   3.3387   3.4404
     3.5133   3.5190   3.8117   3.8193   3.8691   3.8754   3.8830   3.9995
     4.0237   4.0402   4.0624   4.3050   4.3188   4.3543   4.3595   4.4674
     4.4681   4.5447   4.5477   4.8359   5.3996   5.4156   5.5047   5.5222
     5.6074   5.6273   5.6856   5.7008   5.7014   5.7154   5.7797   5.8167
     5.8212   6.0721   6.1082   6.1170   6.1238   6.1299   6.1423   6.1653
     6.1777   6.1864   6.2928   6.3378   6.4062   6.4407   6.4609   6.5202

     the Fermi energy is     0.8724 ev

!    total energy              =   -7379.95653972 Ry
     Harris-Foulkes estimate   =   -7379.95653972 Ry
     estimated scf accuracy    <          9.1E-09 Ry

     The total energy is the sum of the following terms:

     one-electron contribution =  -48902.02123242 Ry
     hartree contribution      =   24998.05878945 Ry
     xc contribution           =   -3556.33348140 Ry
     ewald contribution        =   20080.33788969 Ry
     smearing contrib. (-TS)   =       0.00149495 Ry

     convergence has been achieved in  25 iterations

     Writing output data file 5769122.save

     init_run     :    109.21s CPU    117.66s WALL (       1 calls)
     electrons    :   6570.80s CPU   7019.15s WALL (       1 calls)

     Called by init_run:
     wfcinit      :     78.71s CPU     86.66s WALL (       1 calls)
     potinit      :      3.30s CPU      3.40s WALL (       1 calls)

     Called by electrons:
     c_bands      :   5074.34s CPU   5436.77s WALL (      26 calls)
     sum_band     :   1001.54s CPU   1078.56s WALL (      26 calls)
     v_of_rho     :     18.92s CPU     20.76s WALL (      26 calls)
     newd         :    488.11s CPU    494.47s WALL (      26 calls)
     mix_rho      :      3.44s CPU      3.84s WALL (      26 calls)

     Called by c_bands:
     init_us_2    :     15.40s CPU     15.75s WALL (     318 calls)
     cegterg      :   5020.06s CPU   5381.29s WALL (     156 calls)

     Called by *egterg:
     h_psi        :   2198.24s CPU   2528.06s WALL (     789 calls)
     s_psi        :    348.42s CPU    350.31s WALL (     789 calls)
     g_psi        :      4.37s CPU      4.39s WALL (     627 calls)
     cdiaghg      :   1363.79s CPU   1367.89s WALL (     777 calls)

     Called by h_psi:
     add_vuspsi   :    350.13s CPU    352.15s WALL (     789 calls)

     General routines
     calbec       :    510.63s CPU    512.85s WALL (     945 calls)
     fft          :     54.47s CPU     57.13s WALL (     416 calls)
     ffts         :      1.81s CPU      2.04s WALL (      52 calls)
     fftw         :   1442.47s CPU   1761.66s WALL (  426128 calls)
     interpolate  :      5.24s CPU      5.95s WALL (      52 calls)
     davcio       :      0.00s CPU      0.35s WALL (       6 calls)

     Parallel routines
     fft_scatter  :    931.59s CPU   1157.85s WALL (  426596 calls)

     PWSCF        :     1h51m CPU        1h59m WALL


   This run was terminated on:  22:22:17   8Aug2015            

=------------------------------------------------------------------------------=
   JOB DONE.
=------------------------------------------------------------------------------=
