
     Program PWSCF v.5.1.2 starts on  8Aug2015 at 16:52:14 

     This program is part of the open-source Quantum ESPRESSO suite
     for quantum simulation of materials; please cite
         "P. Giannozzi et al., J. Phys.:Condens. Matter 21 395502 (2009);
          URL http://www.quantum-espresso.org", 
     in publications or presentations arising from this work. More details at
     http://www.quantum-espresso.org/quote

     Parallel version (MPI), running on    32 processors
     R & G space division:  proc/nbgrp/npool/nimage =      32
     Reading input from top.O1.Au62.d.2.6.phi.0.psi.0.in
Warning: card &IONS ignored
Warning: card / ignored
Warning: card &CELL ignored
Warning: card / ignored

     Current dimensions of program PWSCF are:
     Max number of different atomic species (ntypx) = 10
     Max number of k-points (npk) =  40000
     Max angular momentum in pseudopotentials (lmaxx) =  3

     Subspace diagonalization in iterative solution of the eigenvalue problem:
     a serial algorithm will be used


     Parallelization info
     --------------------
     sticks:   dense  smooth     PW     G-vecs:    dense   smooth      PW
     Min         578     289     74               118518    41891    5486
     Max         579     290     75               118533    41932    5497
     Sum       18505    9265   2385              3792731  1341081  175711


     Title: 
     top.O1.Au62.d.2.6.phi.0.psi.0                                              


     bravais-lattice index     =            8
     lattice parameter (alat)  =      24.1233  a.u.
     unit-cell volume          =   28076.2361 (a.u.)^3
     number of atoms/cell      =           75
     number of atomic types    =            3
     number of electrons       =       800.00
     number of Kohn-Sham states=          480
     kinetic-energy cutoff     =      50.0000  Ry
     charge density cutoff     =     400.0000  Ry
     convergence threshold     =      1.0E-08
     mixing beta               =       0.7000
     number of iterations used =            8  plain     mixing
     Exchange-correlation      =  SLA  PW   PBE  PBE ( 1  4  3  4 0 0)

     celldm(1)=  24.123277  celldm(2)=   1.000000  celldm(3)=   2.000000
     celldm(4)=   0.000000  celldm(5)=   0.000000  celldm(6)=   0.000000

     crystal axes: (cart. coord. in units of alat)
               a(1) = (   1.000000   0.000000   0.000000 )  
               a(2) = (   0.000000   1.000000   0.000000 )  
               a(3) = (   0.000000   0.000000   2.000000 )  

     reciprocal axes: (cart. coord. in units 2 pi/alat)
               b(1) = (  1.000000  0.000000  0.000000 )  
               b(2) = (  0.000000  1.000000  0.000000 )  
               b(3) = (  0.000000  0.000000  0.500000 )  


     PseudoPot. # 1 for Au read from file:
     /home/scc/andrejb/qe/pseudo/Au.pbe-nd-van.UPF
     MD5 check sum: 458681b50f36d87ef23c61b04bba420a
     Pseudo is Ultrasoft + core correction, Zval = 11.0
     Generated by new atomic code, or converted to UPF format
     Using radial grid of  985 points,  3 beta functions with: 
                l(1) =   1
                l(2) =   2
                l(3) =   2
     Q(r) pseudized with  8 coefficients,  rinner =    1.100   1.100   1.100
                                                       1.100   1.100

     PseudoPot. # 2 for H  read from file:
     /home/scc/andrejb/qe/pseudo/H.pbe-van_ak.UPF
     MD5 check sum: 403db7282739603aa925980fa9b8608d
     Pseudo is Ultrasoft, Zval =  1.0
     Generated by new atomic code, or converted to UPF format
     Using radial grid of  615 points,  1 beta functions with: 
                l(1) =   0
     Q(r) pseudized with  8 coefficients,  rinner =    0.800

     PseudoPot. # 3 for O  read from file:
     /home/scc/andrejb/qe/pseudo/O.pbe-van_ak.UPF
     MD5 check sum: 4b8c549914a63cae506c6ff22b5af4fe
     Pseudo is Ultrasoft, Zval =  6.0
     Generated by new atomic code, or converted to UPF format
     Using radial grid of  737 points,  4 beta functions with: 
                l(1) =   0
                l(2) =   0
                l(3) =   1
                l(4) =   1
     Q(r) pseudized with  8 coefficients,  rinner =    0.800   0.800   0.800


     atomic species   valence    mass     pseudopotential
        Au            11.00   196.96657     Au( 1.00)
        H              1.00     1.01000     H ( 1.00)
        O              6.00    16.00000     O ( 1.00)

     No symmetry found



   Cartesian axes

     site n.     atom                  positions (alat units)
         1           O   tau(   1) = (   0.4998324   0.3332216   0.7029927  )
         2           H   tau(   2) = (   0.4527548   0.2940501   0.7484866  )
         3           H   tau(   3) = (   0.5454827   0.3712233   0.7508503  )
         4           Au  tau(   4) = (   0.0000000   0.0000000   0.0000000  )
         5           Au  tau(   5) = (   0.3332217   0.0000000   0.0000000  )
         6           Au  tau(   6) = (   0.6664434   0.0000000   0.0000000  )
         7           Au  tau(   7) = (   0.1666109   0.1666109   0.0000000  )
         8           Au  tau(   8) = (   0.4998326   0.1666109   0.0000000  )
         9           Au  tau(   9) = (   0.8330542   0.1666109   0.0000000  )
        10           Au  tau(  10) = (   0.0000000   0.3332217   0.0000000  )
        11           Au  tau(  11) = (   0.3332217   0.3332217   0.0000000  )
        12           Au  tau(  12) = (   0.6664434   0.3332217   0.0000000  )
        13           Au  tau(  13) = (   0.1666109   0.4998326   0.0000000  )
        14           Au  tau(  14) = (   0.4998326   0.4998326   0.0000000  )
        15           Au  tau(  15) = (   0.8330542   0.4998326   0.0000000  )
        16           Au  tau(  16) = (   0.0000000   0.6664434   0.0000000  )
        17           Au  tau(  17) = (   0.3332217   0.6664434   0.0000000  )
        18           Au  tau(  18) = (   0.6664434   0.6664434   0.0000000  )
        19           Au  tau(  19) = (   0.1666109   0.8330542   0.0000000  )
        20           Au  tau(  20) = (   0.4998326   0.8330542   0.0000000  )
        21           Au  tau(  21) = (   0.8330542   0.8330542   0.0000000  )
        22           Au  tau(  22) = (   0.1666109   0.0000000   0.1666109  )
        23           Au  tau(  23) = (   0.4998326   0.0000000   0.1666109  )
        24           Au  tau(  24) = (   0.8330542   0.0000000   0.1666109  )
        25           Au  tau(  25) = (   0.0000000   0.1666109   0.1666109  )
        26           Au  tau(  26) = (   0.3332217   0.1666109   0.1666109  )
        27           Au  tau(  27) = (   0.6664434   0.1666109   0.1666109  )
        28           Au  tau(  28) = (   0.1666109   0.3332217   0.1666109  )
        29           Au  tau(  29) = (   0.4998326   0.3332217   0.1666109  )
        30           Au  tau(  30) = (   0.8330542   0.3332217   0.1666109  )
        31           Au  tau(  31) = (   0.0000000   0.4998326   0.1666109  )
        32           Au  tau(  32) = (   0.3332217   0.4998326   0.1666109  )
        33           Au  tau(  33) = (   0.6664434   0.4998326   0.1666109  )
        34           Au  tau(  34) = (   0.1666109   0.6664434   0.1666109  )
        35           Au  tau(  35) = (   0.4998326   0.6664434   0.1666109  )
        36           Au  tau(  36) = (   0.8330542   0.6664434   0.1666109  )
        37           Au  tau(  37) = (   0.0000000   0.8330542   0.1666109  )
        38           Au  tau(  38) = (   0.3332217   0.8330542   0.1666109  )
        39           Au  tau(  39) = (   0.6664434   0.8330542   0.1666109  )
        40           Au  tau(  40) = (  -0.0000182  -0.0000182   0.3335478  )
        41           Au  tau(  41) = (   0.3332215  -0.0000181   0.3335473  )
        42           Au  tau(  42) = (   0.6664447  -0.0000183   0.3335481  )
        43           Au  tau(  43) = (  -0.0000181   0.3332215   0.3335473  )
        44           Au  tau(  44) = (   0.3332215   0.3332215   0.3335468  )
        45           Au  tau(  45) = (   0.6664445   0.3332215   0.3335477  )
        46           Au  tau(  46) = (  -0.0000183   0.6664447   0.3335481  )
        47           Au  tau(  47) = (   0.3332215   0.6664445   0.3335477  )
        48           Au  tau(  48) = (   0.6664446   0.6664446   0.3335486  )
        49           Au  tau(  49) = (   0.1666097   0.1666097   0.3335483  )
        50           Au  tau(  50) = (   0.4998320   0.1666098   0.3335477  )
        51           Au  tau(  51) = (   0.8330732   0.1666096   0.3335480  )
        52           Au  tau(  52) = (   0.1666098   0.4998320   0.3335477  )
        53           Au  tau(  53) = (   0.4998322   0.4998322   0.3335470  )
        54           Au  tau(  54) = (   0.8330731   0.4998322   0.3335474  )
        55           Au  tau(  55) = (   0.1666096   0.8330732   0.3335480  )
        56           Au  tau(  56) = (   0.4998322   0.8330731   0.3335474  )
        57           Au  tau(  57) = (   0.8330731   0.8330731   0.3335478  )
        58           Au  tau(  58) = (   0.1666104  -0.0000111   0.4993095  )
        59           Au  tau(  59) = (   0.4998323  -0.0000112   0.4993099  )
        60           Au  tau(  60) = (   0.8330660  -0.0000111   0.4993009  )
        61           Au  tau(  61) = (  -0.0000111   0.1666104   0.4993095  )
        62           Au  tau(  62) = (   0.3332213   0.1666106   0.4993185  )
        63           Au  tau(  63) = (   0.6664437   0.1666106   0.4993187  )
        64           Au  tau(  64) = (   0.1666106   0.3332213   0.4993185  )
        65           Au  tau(  65) = (   0.4998324   0.3332216   0.4993185  )
        66           Au  tau(  66) = (   0.8330658   0.3332215   0.4993102  )
        67           Au  tau(  67) = (  -0.0000112   0.4998323   0.4993099  )
        68           Au  tau(  68) = (   0.3332216   0.4998324   0.4993185  )
        69           Au  tau(  69) = (   0.6664437   0.4998325   0.4993187  )
        70           Au  tau(  70) = (   0.1666106   0.6664437   0.4993187  )
        71           Au  tau(  71) = (   0.4998325   0.6664437   0.4993187  )
        72           Au  tau(  72) = (   0.8330658   0.6664438   0.4993102  )
        73           Au  tau(  73) = (  -0.0000111   0.8330660   0.4993009  )
        74           Au  tau(  74) = (   0.3332215   0.8330658   0.4993102  )
        75           Au  tau(  75) = (   0.6664438   0.8330658   0.4993102  )

     number of k points=     6  Marzari-Vanderbilt smearing, width (Ry)=  0.0200
                       cart. coord. in units 2pi/alat
        k(    1) = (   0.2500000   0.2500000   0.0833333), wk =   0.3333333
        k(    2) = (   0.2500000   0.2500000  -0.2500000), wk =   0.3333333
        k(    3) = (  -0.2500000  -0.2500000   0.0833333), wk =   0.3333333
        k(    4) = (  -0.2500000   0.2500000  -0.0833333), wk =   0.3333333
        k(    5) = (   0.2500000  -0.2500000  -0.0833333), wk =   0.3333333
        k(    6) = (  -0.2500000   0.2500000   0.2500000), wk =   0.3333333

     Dense  grid:  3792731 G-vectors     FFT dimensions: ( 160, 160, 320)

     Smooth grid:  1341081 G-vectors     FFT dimensions: ( 120, 120, 225)

     Largest allocated arrays     est. size (Mb)     dimensions
        Kohn-Sham Wavefunctions        38.58 Mb     (    5267,  480)
        NL pseudopotentials            76.03 Mb     (    5267,  946)
        Each V/rho on FFT grid          3.91 Mb     (  256000)
        Each G-vector array             0.90 Mb     (  118520)
        G-vector shells                 0.08 Mb     (   10286)
     Largest temporary arrays     est. size (Mb)     dimensions
        Auxiliary wavefunctions       154.31 Mb     (    5267, 1920)
        Each subspace H/S matrix       56.25 Mb     (    1920, 1920)
        Each <psi_i|beta_j> matrix      6.93 Mb     (     946,  480)
        Arrays for rho mixing          31.25 Mb     (  256000,    8)

     Initial potential from superposition of free atoms
     Check: negative starting charge=   -1.945116

     starting charge  799.16392, renormalised to  800.00000

     negative rho (up, down):  1.947E+00 0.000E+00
     Starting wfc are  654 randomized atomic wfcs

     total cpu time spent up to now is      111.5 secs

     Self-consistent Calculation

     iteration #  1     ecut=    50.00 Ry     beta=0.70
     Davidson diagonalization with overlap
     ethr =  1.00E-02,  avg # of iterations =  3.0

     Threshold (ethr) on eigenvalues was too large:
     Diagonalizing with lowered threshold

     Davidson diagonalization with overlap
     ethr =  5.01E-04,  avg # of iterations =  2.0

     negative rho (up, down):  1.932E+00 0.000E+00

     total cpu time spent up to now is      549.0 secs

     total energy              =   -7377.39351769 Ry
     Harris-Foulkes estimate   =   -7380.96608553 Ry
     estimated scf accuracy    <       4.53492669 Ry

     iteration #  2     ecut=    50.00 Ry     beta=0.70
     Davidson diagonalization with overlap
     ethr =  5.67E-04,  avg # of iterations = 11.2

     negative rho (up, down):  1.929E+00 0.000E+00

     total cpu time spent up to now is     1207.9 secs

     total energy              =   -7368.23458169 Ry
     Harris-Foulkes estimate   =   -7388.14653900 Ry
     estimated scf accuracy    <     104.52689851 Ry

     iteration #  3     ecut=    50.00 Ry     beta=0.70
     Davidson diagonalization with overlap
     ethr =  5.67E-04,  avg # of iterations =  6.2

     negative rho (up, down):  1.947E+00 0.000E+00

     total cpu time spent up to now is     1626.9 secs

     total energy              =   -7379.20180914 Ry
     Harris-Foulkes estimate   =   -7380.66500901 Ry
     estimated scf accuracy    <       5.25800465 Ry

     iteration #  4     ecut=    50.00 Ry     beta=0.70
     Davidson diagonalization with overlap
     ethr =  5.67E-04,  avg # of iterations =  5.2

     negative rho (up, down):  1.951E+00 0.000E+00

     total cpu time spent up to now is     1881.6 secs

     total energy              =   -7379.25721420 Ry
     Harris-Foulkes estimate   =   -7380.58203390 Ry
     estimated scf accuracy    <      11.20153069 Ry

     iteration #  5     ecut=    50.00 Ry     beta=0.70
     Davidson diagonalization with overlap
     ethr =  5.67E-04,  avg # of iterations =  4.7

     negative rho (up, down):  1.962E+00 0.000E+00

     total cpu time spent up to now is     2121.1 secs

     total energy              =   -7379.93333832 Ry
     Harris-Foulkes estimate   =   -7380.06082435 Ry
     estimated scf accuracy    <       0.63959761 Ry

     iteration #  6     ecut=    50.00 Ry     beta=0.70
     Davidson diagonalization with overlap
     ethr =  7.99E-05,  avg # of iterations =  8.8

     negative rho (up, down):  1.965E+00 0.000E+00

     total cpu time spent up to now is     2397.8 secs

     total energy              =   -7379.96718032 Ry
     Harris-Foulkes estimate   =   -7379.99670439 Ry
     estimated scf accuracy    <       0.10067626 Ry

     iteration #  7     ecut=    50.00 Ry     beta=0.70
     Davidson diagonalization with overlap
     ethr =  1.26E-05,  avg # of iterations = 13.3

     negative rho (up, down):  1.968E+00 0.000E+00

     total cpu time spent up to now is     2753.1 secs

     total energy              =   -7379.96954510 Ry
     Harris-Foulkes estimate   =   -7379.99566972 Ry
     estimated scf accuracy    <       0.11115574 Ry

     iteration #  8     ecut=    50.00 Ry     beta=0.70
     Davidson diagonalization with overlap
     ethr =  1.26E-05,  avg # of iterations =  4.2

     negative rho (up, down):  1.969E+00 0.000E+00

     total cpu time spent up to now is     2987.9 secs

     total energy              =   -7379.97221892 Ry
     Harris-Foulkes estimate   =   -7379.99352012 Ry
     estimated scf accuracy    <       0.10083636 Ry

     iteration #  9     ecut=    50.00 Ry     beta=0.70
     Davidson diagonalization with overlap
     ethr =  1.26E-05,  avg # of iterations =  4.3

     negative rho (up, down):  1.970E+00 0.000E+00

     total cpu time spent up to now is     3218.7 secs

     total energy              =   -7379.98112542 Ry
     Harris-Foulkes estimate   =   -7379.98580284 Ry
     estimated scf accuracy    <       0.01688676 Ry

     iteration # 10     ecut=    50.00 Ry     beta=0.70
     Davidson diagonalization with overlap
     ethr =  2.11E-06,  avg # of iterations = 14.3

     negative rho (up, down):  1.970E+00 0.000E+00

     total cpu time spent up to now is     3561.0 secs

     total energy              =   -7379.98340598 Ry
     Harris-Foulkes estimate   =   -7379.98445885 Ry
     estimated scf accuracy    <       0.00316781 Ry

     iteration # 11     ecut=    50.00 Ry     beta=0.70
     Davidson diagonalization with overlap
     ethr =  3.96E-07,  avg # of iterations =  2.0

     negative rho (up, down):  1.970E+00 0.000E+00

     total cpu time spent up to now is     3769.4 secs

     total energy              =   -7379.98376536 Ry
     Harris-Foulkes estimate   =   -7379.98411560 Ry
     estimated scf accuracy    <       0.00093463 Ry

     iteration # 12     ecut=    50.00 Ry     beta=0.70
     Davidson diagonalization with overlap
     ethr =  1.17E-07,  avg # of iterations =  2.0

     negative rho (up, down):  1.970E+00 0.000E+00

     total cpu time spent up to now is     3977.3 secs

     total energy              =   -7379.98385877 Ry
     Harris-Foulkes estimate   =   -7379.98404295 Ry
     estimated scf accuracy    <       0.00082419 Ry

     iteration # 13     ecut=    50.00 Ry     beta=0.70
     Davidson diagonalization with overlap
     ethr =  1.03E-07,  avg # of iterations =  2.0

     negative rho (up, down):  1.970E+00 0.000E+00

     total cpu time spent up to now is     4196.5 secs

     total energy              =   -7379.98393859 Ry
     Harris-Foulkes estimate   =   -7379.98399568 Ry
     estimated scf accuracy    <       0.00023731 Ry

     iteration # 14     ecut=    50.00 Ry     beta=0.70
     Davidson diagonalization with overlap
     ethr =  2.97E-08,  avg # of iterations =  2.0

     negative rho (up, down):  1.970E+00 0.000E+00

     total cpu time spent up to now is     4399.9 secs

     total energy              =   -7379.98394440 Ry
     Harris-Foulkes estimate   =   -7379.98398598 Ry
     estimated scf accuracy    <       0.00015869 Ry

     iteration # 15     ecut=    50.00 Ry     beta=0.70
     Davidson diagonalization with overlap
     ethr =  1.98E-08,  avg # of iterations =  2.0

     negative rho (up, down):  1.970E+00 0.000E+00

     total cpu time spent up to now is     4601.4 secs

     total energy              =   -7379.98394271 Ry
     Harris-Foulkes estimate   =   -7379.98399830 Ry
     estimated scf accuracy    <       0.00044442 Ry

     iteration # 16     ecut=    50.00 Ry     beta=0.70
     Davidson diagonalization with overlap
     ethr =  1.98E-08,  avg # of iterations =  2.0

     negative rho (up, down):  1.970E+00 0.000E+00

     total cpu time spent up to now is     4809.1 secs

     total energy              =   -7379.98396634 Ry
     Harris-Foulkes estimate   =   -7379.98397613 Ry
     estimated scf accuracy    <       0.00003783 Ry

     iteration # 17     ecut=    50.00 Ry     beta=0.70
     Davidson diagonalization with overlap
     ethr =  4.73E-09,  avg # of iterations =  2.0

     negative rho (up, down):  1.970E+00 0.000E+00

     total cpu time spent up to now is     5013.0 secs

     total energy              =   -7379.98397062 Ry
     Harris-Foulkes estimate   =   -7379.98397226 Ry
     estimated scf accuracy    <       0.00000594 Ry

     iteration # 18     ecut=    50.00 Ry     beta=0.70
     Davidson diagonalization with overlap
     ethr =  7.43E-10,  avg # of iterations =  2.0

     negative rho (up, down):  1.970E+00 0.000E+00

     total cpu time spent up to now is     5222.2 secs

     total energy              =   -7379.98397137 Ry
     Harris-Foulkes estimate   =   -7379.98397187 Ry
     estimated scf accuracy    <       0.00000171 Ry

     iteration # 19     ecut=    50.00 Ry     beta=0.70
     Davidson diagonalization with overlap
     ethr =  2.14E-10,  avg # of iterations =  3.0

     negative rho (up, down):  1.971E+00 0.000E+00

     total cpu time spent up to now is     5445.7 secs

     total energy              =   -7379.98397144 Ry
     Harris-Foulkes estimate   =   -7379.98397187 Ry
     estimated scf accuracy    <       0.00000181 Ry

     iteration # 20     ecut=    50.00 Ry     beta=0.70
     Davidson diagonalization with overlap
     ethr =  2.14E-10,  avg # of iterations =  2.0

     negative rho (up, down):  1.971E+00 0.000E+00

     total cpu time spent up to now is     5645.0 secs

     total energy              =   -7379.98397161 Ry
     Harris-Foulkes estimate   =   -7379.98397173 Ry
     estimated scf accuracy    <       0.00000040 Ry

     iteration # 21     ecut=    50.00 Ry     beta=0.70
     Davidson diagonalization with overlap
     ethr =  5.01E-11,  avg # of iterations =  2.0

     negative rho (up, down):  1.971E+00 0.000E+00

     total cpu time spent up to now is     5850.5 secs

     total energy              =   -7379.98397165 Ry
     Harris-Foulkes estimate   =   -7379.98397169 Ry
     estimated scf accuracy    <       0.00000012 Ry

     iteration # 22     ecut=    50.00 Ry     beta=0.70
     Davidson diagonalization with overlap
     ethr =  1.47E-11,  avg # of iterations =  3.0

     negative rho (up, down):  1.971E+00 0.000E+00

     total cpu time spent up to now is     6071.1 secs

     total energy              =   -7379.98397165 Ry
     Harris-Foulkes estimate   =   -7379.98397169 Ry
     estimated scf accuracy    <       0.00000014 Ry

     iteration # 23     ecut=    50.00 Ry     beta=0.70
     Davidson diagonalization with overlap
     ethr =  1.47E-11,  avg # of iterations =  2.0

     negative rho (up, down):  1.971E+00 0.000E+00

     total cpu time spent up to now is     6274.1 secs

     total energy              =   -7379.98397166 Ry
     Harris-Foulkes estimate   =   -7379.98397167 Ry
     estimated scf accuracy    <       0.00000005 Ry

     iteration # 24     ecut=    50.00 Ry     beta=0.70
     Davidson diagonalization with overlap
     ethr =  5.73E-12,  avg # of iterations =  2.0

     negative rho (up, down):  1.971E+00 0.000E+00

     total cpu time spent up to now is     6479.1 secs

     total energy              =   -7379.98397166 Ry
     Harris-Foulkes estimate   =   -7379.98397167 Ry
     estimated scf accuracy    <       0.00000002 Ry

     iteration # 25     ecut=    50.00 Ry     beta=0.70
     Davidson diagonalization with overlap
     ethr =  2.23E-12,  avg # of iterations =  2.0

     negative rho (up, down):  1.971E+00 0.000E+00

     total cpu time spent up to now is     6686.6 secs

     total energy              =   -7379.98397166 Ry
     Harris-Foulkes estimate   =   -7379.98397166 Ry
     estimated scf accuracy    <       0.00000001 Ry

     iteration # 26     ecut=    50.00 Ry     beta=0.70
     Davidson diagonalization with overlap
     ethr =  1.29E-12,  avg # of iterations =  1.0

     negative rho (up, down):  1.971E+00 0.000E+00

     total cpu time spent up to now is     6877.2 secs

     End of self-consistent calculation

          k = 0.2500 0.2500 0.0833 (167653 PWs)   bands (ev):

   -20.1654  -7.9331  -6.7045  -6.1749  -6.1741  -5.7366  -5.3449  -5.2395
    -5.2337  -5.0268  -5.0111  -4.9784  -4.9159  -4.8302  -4.7727  -4.7498
    -4.6590  -4.5751  -4.5688  -4.5498  -4.5400  -4.3692  -4.3680  -4.3664
    -4.3386  -4.3367  -4.3325  -4.3315  -4.2802  -4.2768  -4.2761  -4.2641
    -4.2121  -4.1839  -4.1802  -4.1277  -4.1240  -4.1228  -4.0876  -4.0863
    -4.0725  -4.0679  -4.0492  -4.0473  -4.0124  -3.9799  -3.9793  -3.9760
    -3.9743  -3.9729  -3.9422  -3.9140  -3.9097  -3.8840  -3.8827  -3.8795
    -3.8793  -3.8731  -3.8715  -3.8411  -3.8389  -3.7798  -3.7737  -3.7466
    -3.7181  -3.7144  -3.7104  -3.7098  -3.6869  -3.6850  -3.6760  -3.6256
    -3.6233  -3.6197  -3.6188  -3.5349  -3.5315  -3.5125  -3.5095  -3.4777
    -3.4759  -3.4602  -3.4365  -3.4333  -3.3917  -3.3905  -3.3893  -3.3866
    -3.3649  -3.3641  -3.2868  -3.2835  -3.2820  -3.2663  -3.2552  -3.2503
    -3.2367  -3.2364  -3.2300  -3.2298  -3.1879  -3.1837  -3.1657  -3.1646
    -3.1294  -3.1274  -3.1019  -3.0823  -3.0796  -3.0337  -3.0336  -3.0003
    -2.9734  -2.9728  -2.9717  -2.9712  -2.9676  -2.9660  -2.9430  -2.9305
    -2.8934  -2.8921  -2.8706  -2.8469  -2.8446  -2.8425  -2.8391  -2.8368
    -2.8337  -2.8335  -2.7997  -2.7989  -2.7977  -2.7935  -2.7907  -2.7871
    -2.7329  -2.7275  -2.7227  -2.7209  -2.7007  -2.6999  -2.6951  -2.6049
    -2.5962  -2.5956  -2.5862  -2.5855  -2.5825  -2.5795  -2.5768  -2.5691
    -2.5687  -2.5597  -2.5539  -2.5507  -2.5436  -2.5433  -2.5358  -2.5335
    -2.5259  -2.5040  -2.4942  -2.4917  -2.4775  -2.4767  -2.4648  -2.4611
    -2.4519  -2.4507  -2.4330  -2.4301  -2.4193  -2.4182  -2.4108  -2.3795
    -2.3777  -2.3765  -2.3235  -2.3184  -2.3136  -2.2989  -2.2976  -2.2829
    -2.2759  -2.2631  -2.2604  -2.2564  -2.2463  -2.2351  -2.2337  -2.2209
    -2.2151  -2.2094  -2.1898  -2.1842  -2.1792  -2.1759  -2.1700  -2.1514
    -2.1446  -2.1387  -2.1159  -2.0520  -2.0415  -2.0288  -2.0273  -2.0165
    -2.0085  -1.9679  -1.9677  -1.9548  -1.9318  -1.9205  -1.9163  -1.9001
    -1.8836  -1.8797  -1.8696  -1.8606  -1.8360  -1.8324  -1.8315  -1.8218
    -1.8199  -1.8147  -1.8094  -1.7984  -1.7856  -1.7776  -1.7775  -1.7766
    -1.7764  -1.7729  -1.7722  -1.7599  -1.7410  -1.7401  -1.7379  -1.7303
    -1.7191  -1.7172  -1.7150  -1.7143  -1.7077  -1.7067  -1.6727  -1.6682
    -1.6262  -1.6096  -1.6065  -1.5635  -1.5633  -1.5627  -1.5521  -1.5513
    -1.5388  -1.5345  -1.5308  -1.5287  -1.5206  -1.5123  -1.4971  -1.4936
    -1.4628  -1.4590  -1.4439  -1.4229  -1.4206  -1.3830  -1.3825  -1.3332
    -1.3325  -1.3107  -1.2879  -1.2851  -1.2849  -1.2793  -1.2768  -1.2617
    -1.2604  -1.2593  -1.2586  -1.2581  -1.2569  -1.2561  -1.2489  -1.2399
    -1.2246  -1.2230  -1.1933  -1.1930  -1.1891  -1.1707  -1.1681  -1.1650
    -1.1649  -1.1625  -1.1468  -1.1219  -1.1209  -1.1009  -1.0976  -1.0870
    -1.0778  -1.0656  -1.0600  -1.0371  -1.0367  -1.0307  -1.0263  -0.9914
    -0.9908  -0.9788  -0.9784  -0.9775  -0.9701  -0.9520  -0.9512  -0.9379
    -0.9296  -0.9288  -0.9185  -0.9179  -0.9165  -0.9106  -0.9058  -0.8958
    -0.8929  -0.8867  -0.8864  -0.8816  -0.8747  -0.8640  -0.8605  -0.8176
    -0.8173  -0.8172  -0.8148  -0.8089  -0.8026  -0.7784  -0.7742  -0.7681
    -0.7503  -0.7479  -0.7403  -0.7372  -0.7324  -0.7235  -0.7158  -0.6892
    -0.6800  -0.6763  -0.6726  -0.6560  -0.6551  -0.6406  -0.6167  -0.6086
    -0.5907  -0.5899  -0.5536  -0.5527  -0.5516  -0.5482  -0.5431  -0.5424
    -0.5418  -0.5415  -0.5358  -0.5348  -0.5026  -0.5022  -0.5014  -0.5010
    -0.4991  -0.4874  -0.4849  -0.4663  -0.4566  -0.1976  -0.1863  -0.1458
    -0.1232  -0.1074  -0.0539   0.0998   0.1004   0.1409   0.4150   0.4227
     0.7519   0.7700   0.8002   0.8006   0.8482   0.8532   1.0069   1.0249
     1.1382   1.1408   1.2563   1.7490   1.7897   1.7954   1.8317   1.8330
     1.9571   1.9743   2.0222   2.0412   2.2067   2.2119   2.4885   2.5142
     2.5364   2.5411   2.9659   2.9824   2.9985   3.0041   3.0155   3.0189
     3.0812   3.0827   3.2133   3.3517   3.3640   3.5454   3.5518   3.6572
     3.7256   3.7387   4.0227   4.0276   4.0840   4.0870   4.0955   4.1845
     4.2290   4.2323   4.2372   4.5291   4.5298   4.5582   4.5659   4.6792
     4.6805   4.7384   4.7664   4.9247   5.1381   5.6220   5.6255   5.6735
     5.6954   5.7880   5.8325   5.8452   5.9070   5.9144   5.9222   5.9244
     5.9465   6.0330   6.0366   6.1109   6.2715   6.3192   6.3207   6.3329
     6.3345   6.3416   6.3499   6.3571   6.3663   6.4722   6.5032   6.5600

          k = 0.2500 0.2500-0.2500 (167588 PWs)   bands (ev):

   -20.1654  -7.9331  -6.7045  -6.1749  -6.1741  -5.7366  -5.3449  -5.2395
    -5.2337  -5.0268  -5.0111  -4.9784  -4.9159  -4.8302  -4.7727  -4.7498
    -4.6590  -4.5751  -4.5688  -4.5498  -4.5400  -4.3692  -4.3680  -4.3664
    -4.3386  -4.3367  -4.3325  -4.3315  -4.2802  -4.2768  -4.2761  -4.2641
    -4.2121  -4.1839  -4.1802  -4.1277  -4.1240  -4.1228  -4.0876  -4.0863
    -4.0725  -4.0679  -4.0492  -4.0473  -4.0124  -3.9799  -3.9793  -3.9760
    -3.9743  -3.9729  -3.9422  -3.9140  -3.9097  -3.8840  -3.8827  -3.8795
    -3.8793  -3.8731  -3.8715  -3.8411  -3.8389  -3.7798  -3.7737  -3.7466
    -3.7181  -3.7144  -3.7104  -3.7098  -3.6869  -3.6850  -3.6760  -3.6256
    -3.6233  -3.6197  -3.6188  -3.5349  -3.5315  -3.5125  -3.5095  -3.4777
    -3.4759  -3.4602  -3.4365  -3.4333  -3.3917  -3.3905  -3.3893  -3.3866
    -3.3649  -3.3641  -3.2868  -3.2835  -3.2820  -3.2663  -3.2552  -3.2503
    -3.2367  -3.2364  -3.2300  -3.2298  -3.1879  -3.1837  -3.1657  -3.1646
    -3.1293  -3.1274  -3.1019  -3.0823  -3.0796  -3.0337  -3.0336  -3.0003
    -2.9734  -2.9728  -2.9717  -2.9712  -2.9676  -2.9660  -2.9430  -2.9305
    -2.8934  -2.8921  -2.8706  -2.8469  -2.8446  -2.8425  -2.8391  -2.8367
    -2.8337  -2.8335  -2.7997  -2.7989  -2.7977  -2.7935  -2.7907  -2.7871
    -2.7329  -2.7275  -2.7227  -2.7209  -2.7007  -2.6999  -2.6951  -2.6049
    -2.5962  -2.5956  -2.5862  -2.5855  -2.5824  -2.5795  -2.5768  -2.5691
    -2.5687  -2.5597  -2.5539  -2.5507  -2.5436  -2.5433  -2.5358  -2.5335
    -2.5259  -2.5040  -2.4942  -2.4917  -2.4775  -2.4767  -2.4648  -2.4611
    -2.4519  -2.4507  -2.4330  -2.4301  -2.4193  -2.4182  -2.4108  -2.3795
    -2.3777  -2.3765  -2.3235  -2.3184  -2.3136  -2.2989  -2.2976  -2.2829
    -2.2759  -2.2631  -2.2604  -2.2564  -2.2463  -2.2351  -2.2337  -2.2209
    -2.2151  -2.2094  -2.1898  -2.1842  -2.1792  -2.1759  -2.1700  -2.1514
    -2.1446  -2.1387  -2.1159  -2.0520  -2.0415  -2.0288  -2.0273  -2.0165
    -2.0085  -1.9679  -1.9677  -1.9548  -1.9318  -1.9205  -1.9163  -1.9001
    -1.8836  -1.8797  -1.8696  -1.8606  -1.8360  -1.8324  -1.8315  -1.8218
    -1.8199  -1.8147  -1.8094  -1.7985  -1.7856  -1.7776  -1.7775  -1.7766
    -1.7764  -1.7729  -1.7722  -1.7599  -1.7410  -1.7401  -1.7379  -1.7303
    -1.7191  -1.7172  -1.7150  -1.7143  -1.7077  -1.7067  -1.6727  -1.6682
    -1.6262  -1.6096  -1.6065  -1.5635  -1.5633  -1.5627  -1.5521  -1.5513
    -1.5388  -1.5345  -1.5308  -1.5287  -1.5206  -1.5123  -1.4971  -1.4936
    -1.4628  -1.4590  -1.4439  -1.4229  -1.4206  -1.3830  -1.3825  -1.3332
    -1.3325  -1.3107  -1.2879  -1.2851  -1.2849  -1.2793  -1.2768  -1.2617
    -1.2604  -1.2593  -1.2586  -1.2581  -1.2569  -1.2561  -1.2489  -1.2399
    -1.2246  -1.2230  -1.1933  -1.1930  -1.1891  -1.1707  -1.1681  -1.1650
    -1.1649  -1.1625  -1.1468  -1.1219  -1.1209  -1.1009  -1.0976  -1.0870
    -1.0778  -1.0656  -1.0600  -1.0371  -1.0367  -1.0307  -1.0263  -0.9914
    -0.9908  -0.9788  -0.9784  -0.9775  -0.9701  -0.9520  -0.9512  -0.9379
    -0.9296  -0.9288  -0.9185  -0.9179  -0.9165  -0.9106  -0.9058  -0.8958
    -0.8929  -0.8867  -0.8864  -0.8816  -0.8747  -0.8640  -0.8605  -0.8176
    -0.8173  -0.8172  -0.8148  -0.8089  -0.8026  -0.7784  -0.7742  -0.7681
    -0.7503  -0.7479  -0.7403  -0.7372  -0.7324  -0.7235  -0.7158  -0.6892
    -0.6800  -0.6763  -0.6726  -0.6560  -0.6551  -0.6406  -0.6167  -0.6086
    -0.5907  -0.5899  -0.5536  -0.5527  -0.5516  -0.5482  -0.5431  -0.5424
    -0.5418  -0.5414  -0.5358  -0.5348  -0.5026  -0.5022  -0.5014  -0.5010
    -0.4991  -0.4874  -0.4849  -0.4663  -0.4566  -0.1976  -0.1863  -0.1458
    -0.1232  -0.1074  -0.0539   0.0998   0.1004   0.1409   0.4150   0.4227
     0.7519   0.7700   0.8002   0.8006   0.8482   0.8532   1.0070   1.0249
     1.1382   1.1408   1.2563   1.7490   1.7897   1.7954   1.8317   1.8330
     1.9571   1.9743   2.0222   2.0412   2.2067   2.2119   2.4885   2.5142
     2.5364   2.5411   2.9659   2.9824   2.9985   3.0041   3.0155   3.0189
     3.0812   3.0827   3.2134   3.3517   3.3640   3.5454   3.5518   3.6572
     3.7256   3.7387   4.0227   4.0276   4.0840   4.0871   4.0955   4.1846
     4.2290   4.2323   4.2372   4.5291   4.5298   4.5582   4.5659   4.6792
     4.6805   4.7384   4.7664   4.9244   5.1359   5.6220   5.6251   5.6738
     5.6890   5.7659   5.8325   5.8450   5.9070   5.9194   5.9225   5.9244
     6.0014   6.0329   6.0647   6.0788   6.2488   6.3192   6.3212   6.3279
     6.3352   6.3400   6.3508   6.4064   6.4362   6.4690   6.5322   6.5686

          k =-0.2500-0.2500 0.0833 (167653 PWs)   bands (ev):

   -20.1654  -7.9331  -6.7045  -6.1749  -6.1741  -5.7366  -5.3449  -5.2395
    -5.2337  -5.0268  -5.0111  -4.9784  -4.9159  -4.8302  -4.7727  -4.7498
    -4.6590  -4.5751  -4.5688  -4.5498  -4.5400  -4.3692  -4.3680  -4.3664
    -4.3386  -4.3367  -4.3325  -4.3315  -4.2802  -4.2768  -4.2761  -4.2641
    -4.2121  -4.1839  -4.1802  -4.1277  -4.1240  -4.1228  -4.0876  -4.0863
    -4.0725  -4.0679  -4.0492  -4.0473  -4.0124  -3.9799  -3.9793  -3.9760
    -3.9743  -3.9729  -3.9422  -3.9140  -3.9097  -3.8840  -3.8827  -3.8795
    -3.8793  -3.8731  -3.8715  -3.8411  -3.8389  -3.7798  -3.7737  -3.7466
    -3.7181  -3.7144  -3.7104  -3.7098  -3.6869  -3.6850  -3.6760  -3.6256
    -3.6233  -3.6197  -3.6188  -3.5349  -3.5315  -3.5125  -3.5095  -3.4777
    -3.4759  -3.4602  -3.4365  -3.4333  -3.3917  -3.3905  -3.3893  -3.3866
    -3.3649  -3.3641  -3.2868  -3.2835  -3.2820  -3.2663  -3.2552  -3.2503
    -3.2367  -3.2364  -3.2300  -3.2298  -3.1879  -3.1837  -3.1657  -3.1646
    -3.1294  -3.1274  -3.1019  -3.0823  -3.0796  -3.0337  -3.0336  -3.0003
    -2.9734  -2.9728  -2.9717  -2.9712  -2.9676  -2.9660  -2.9430  -2.9305
    -2.8934  -2.8921  -2.8706  -2.8469  -2.8446  -2.8425  -2.8391  -2.8368
    -2.8337  -2.8335  -2.7997  -2.7989  -2.7977  -2.7935  -2.7907  -2.7871
    -2.7329  -2.7275  -2.7227  -2.7209  -2.7007  -2.6999  -2.6951  -2.6049
    -2.5962  -2.5956  -2.5862  -2.5855  -2.5825  -2.5795  -2.5768  -2.5691
    -2.5687  -2.5597  -2.5539  -2.5507  -2.5436  -2.5433  -2.5358  -2.5335
    -2.5259  -2.5040  -2.4942  -2.4917  -2.4775  -2.4767  -2.4648  -2.4611
    -2.4519  -2.4507  -2.4330  -2.4301  -2.4193  -2.4182  -2.4108  -2.3795
    -2.3777  -2.3765  -2.3235  -2.3184  -2.3136  -2.2989  -2.2976  -2.2829
    -2.2759  -2.2631  -2.2604  -2.2564  -2.2463  -2.2351  -2.2337  -2.2209
    -2.2151  -2.2094  -2.1898  -2.1842  -2.1792  -2.1759  -2.1700  -2.1514
    -2.1446  -2.1387  -2.1159  -2.0520  -2.0415  -2.0288  -2.0273  -2.0165
    -2.0085  -1.9679  -1.9677  -1.9548  -1.9318  -1.9205  -1.9163  -1.9001
    -1.8836  -1.8797  -1.8696  -1.8606  -1.8360  -1.8324  -1.8315  -1.8218
    -1.8199  -1.8147  -1.8094  -1.7984  -1.7856  -1.7776  -1.7775  -1.7766
    -1.7764  -1.7729  -1.7722  -1.7599  -1.7410  -1.7401  -1.7379  -1.7303
    -1.7191  -1.7172  -1.7150  -1.7143  -1.7077  -1.7067  -1.6727  -1.6682
    -1.6262  -1.6096  -1.6065  -1.5635  -1.5633  -1.5627  -1.5521  -1.5513
    -1.5388  -1.5345  -1.5308  -1.5287  -1.5206  -1.5123  -1.4971  -1.4936
    -1.4628  -1.4590  -1.4439  -1.4229  -1.4206  -1.3830  -1.3825  -1.3332
    -1.3325  -1.3107  -1.2879  -1.2851  -1.2849  -1.2793  -1.2768  -1.2617
    -1.2604  -1.2593  -1.2586  -1.2581  -1.2569  -1.2561  -1.2489  -1.2399
    -1.2246  -1.2230  -1.1933  -1.1930  -1.1891  -1.1707  -1.1681  -1.1650
    -1.1649  -1.1625  -1.1468  -1.1219  -1.1209  -1.1009  -1.0976  -1.0870
    -1.0778  -1.0656  -1.0600  -1.0371  -1.0367  -1.0307  -1.0263  -0.9914
    -0.9908  -0.9788  -0.9784  -0.9775  -0.9701  -0.9520  -0.9512  -0.9379
    -0.9296  -0.9288  -0.9185  -0.9179  -0.9165  -0.9106  -0.9058  -0.8958
    -0.8929  -0.8867  -0.8864  -0.8816  -0.8747  -0.8640  -0.8605  -0.8176
    -0.8173  -0.8172  -0.8148  -0.8089  -0.8026  -0.7784  -0.7742  -0.7681
    -0.7503  -0.7479  -0.7403  -0.7372  -0.7324  -0.7235  -0.7158  -0.6892
    -0.6800  -0.6763  -0.6726  -0.6560  -0.6551  -0.6406  -0.6167  -0.6086
    -0.5907  -0.5899  -0.5536  -0.5527  -0.5516  -0.5482  -0.5431  -0.5424
    -0.5418  -0.5415  -0.5358  -0.5348  -0.5026  -0.5022  -0.5014  -0.5010
    -0.4991  -0.4874  -0.4849  -0.4663  -0.4566  -0.1976  -0.1863  -0.1458
    -0.1232  -0.1074  -0.0539   0.0998   0.1004   0.1409   0.4150   0.4227
     0.7519   0.7700   0.8002   0.8006   0.8482   0.8532   1.0069   1.0249
     1.1382   1.1408   1.2563   1.7490   1.7897   1.7954   1.8317   1.8330
     1.9571   1.9743   2.0222   2.0412   2.2067   2.2119   2.4885   2.5142
     2.5364   2.5411   2.9659   2.9824   2.9985   3.0041   3.0155   3.0189
     3.0812   3.0827   3.2133   3.3517   3.3640   3.5454   3.5518   3.6572
     3.7256   3.7387   4.0227   4.0276   4.0840   4.0870   4.0955   4.1845
     4.2290   4.2323   4.2372   4.5291   4.5298   4.5582   4.5659   4.6792
     4.6805   4.7384   4.7664   4.9247   5.1380   5.6220   5.6255   5.6735
     5.6956   5.7875   5.8325   5.8452   5.9070   5.9146   5.9221   5.9244
     5.9472   6.0330   6.0367   6.1109   6.2718   6.3192   6.3205   6.3328
     6.3345   6.3415   6.3499   6.3564   6.3649   6.4722   6.5029   6.5620

          k =-0.2500 0.2500-0.0833 (167653 PWs)   bands (ev):

   -20.1654  -7.9331  -6.7045  -6.1749  -6.1741  -5.7366  -5.3450  -5.2387
    -5.2344  -5.0270  -5.0110  -4.9780  -4.9169  -4.8294  -4.7728  -4.7500
    -4.6592  -4.5750  -4.5687  -4.5500  -4.5395  -4.3693  -4.3687  -4.3659
    -4.3385  -4.3369  -4.3319  -4.3319  -4.2812  -4.2775  -4.2753  -4.2638
    -4.2121  -4.1840  -4.1801  -4.1279  -4.1240  -4.1227  -4.0884  -4.0853
    -4.0725  -4.0679  -4.0492  -4.0472  -4.0129  -3.9806  -3.9787  -3.9762
    -3.9747  -3.9726  -3.9426  -3.9143  -3.9085  -3.8846  -3.8823  -3.8795
    -3.8792  -3.8730  -3.8714  -3.8418  -3.8375  -3.7806  -3.7733  -3.7472
    -3.7175  -3.7138  -3.7099  -3.7098  -3.6870  -3.6848  -3.6760  -3.6253
    -3.6234  -3.6203  -3.6184  -3.5356  -3.5315  -3.5133  -3.5099  -3.4777
    -3.4760  -3.4602  -3.4362  -3.4334  -3.3924  -3.3905  -3.3895  -3.3864
    -3.3657  -3.3637  -3.2848  -3.2835  -3.2820  -3.2663  -3.2539  -3.2512
    -3.2370  -3.2361  -3.2303  -3.2301  -3.1872  -3.1836  -3.1661  -3.1652
    -3.1285  -3.1284  -3.1018  -3.0805  -3.0798  -3.0343  -3.0332  -3.0015
    -2.9746  -2.9737  -2.9717  -2.9715  -2.9676  -2.9657  -2.9428  -2.9306
    -2.8929  -2.8925  -2.8704  -2.8469  -2.8451  -2.8423  -2.8398  -2.8358
    -2.8337  -2.8337  -2.7989  -2.7979  -2.7978  -2.7925  -2.7910  -2.7875
    -2.7317  -2.7273  -2.7230  -2.7217  -2.7011  -2.7004  -2.6960  -2.6051
    -2.5961  -2.5950  -2.5869  -2.5850  -2.5798  -2.5796  -2.5774  -2.5692
    -2.5691  -2.5617  -2.5509  -2.5493  -2.5438  -2.5430  -2.5341  -2.5296
    -2.5259  -2.5043  -2.4982  -2.4949  -2.4777  -2.4771  -2.4629  -2.4608
    -2.4522  -2.4506  -2.4303  -2.4264  -2.4194  -2.4147  -2.4110  -2.3893
    -2.3773  -2.3767  -2.3233  -2.3143  -2.3034  -2.3005  -2.2987  -2.2906
    -2.2825  -2.2627  -2.2601  -2.2575  -2.2473  -2.2402  -2.2359  -2.2205
    -2.2190  -2.2133  -2.1905  -2.1835  -2.1812  -2.1777  -2.1709  -2.1695
    -2.1436  -2.1247  -2.1083  -2.0500  -2.0435  -2.0292  -2.0266  -2.0184
    -2.0064  -1.9690  -1.9606  -1.9374  -1.9321  -1.9219  -1.9182  -1.9015
    -1.8832  -1.8805  -1.8698  -1.8607  -1.8360  -1.8332  -1.8234  -1.8199
    -1.8170  -1.8153  -1.8147  -1.7962  -1.7859  -1.7778  -1.7773  -1.7770
    -1.7761  -1.7750  -1.7660  -1.7611  -1.7416  -1.7381  -1.7331  -1.7320
    -1.7198  -1.7190  -1.7151  -1.7122  -1.7082  -1.7072  -1.6742  -1.6651
    -1.6260  -1.6111  -1.6051  -1.5644  -1.5627  -1.5619  -1.5544  -1.5518
    -1.5410  -1.5390  -1.5328  -1.5220  -1.5214  -1.5190  -1.5008  -1.4972
    -1.4634  -1.4580  -1.4440  -1.4245  -1.4192  -1.3839  -1.3830  -1.3335
    -1.3309  -1.3104  -1.2862  -1.2858  -1.2849  -1.2802  -1.2786  -1.2610
    -1.2606  -1.2596  -1.2582  -1.2580  -1.2568  -1.2541  -1.2507  -1.2377
    -1.2265  -1.2226  -1.1942  -1.1928  -1.1926  -1.1704  -1.1692  -1.1659
    -1.1640  -1.1606  -1.1427  -1.1259  -1.1195  -1.1004  -1.1001  -1.0829
    -1.0778  -1.0668  -1.0591  -1.0377  -1.0366  -1.0311  -1.0251  -0.9925
    -0.9881  -0.9806  -0.9780  -0.9779  -0.9686  -0.9518  -0.9504  -0.9388
    -0.9305  -0.9284  -0.9203  -0.9178  -0.9157  -0.9092  -0.9065  -0.8948
    -0.8922  -0.8872  -0.8859  -0.8796  -0.8782  -0.8650  -0.8611  -0.8189
    -0.8163  -0.8155  -0.8153  -0.8092  -0.8020  -0.7840  -0.7738  -0.7683
    -0.7518  -0.7450  -0.7413  -0.7369  -0.7327  -0.7237  -0.7151  -0.6903
    -0.6794  -0.6765  -0.6710  -0.6563  -0.6544  -0.6407  -0.6175  -0.6091
    -0.5913  -0.5891  -0.5532  -0.5529  -0.5514  -0.5482  -0.5433  -0.5420
    -0.5419  -0.5413  -0.5355  -0.5350  -0.5044  -0.5025  -0.5015  -0.5012
    -0.5010  -0.4871  -0.4853  -0.4613  -0.4570  -0.1976  -0.1863  -0.1494
    -0.1201  -0.1072  -0.0514   0.0988   0.1023   0.1411   0.4124   0.4253
     0.7487   0.7721   0.7988   0.8035   0.8467   0.8563   1.0021   1.0286
     1.1381   1.1403   1.2575   1.7505   1.7851   1.7954   1.8319   1.8322
     1.9500   1.9788   2.0193   2.0478   2.2046   2.2139   2.4878   2.5110
     2.5374   2.5423   2.9602   2.9795   2.9968   3.0081   3.0145   3.0212
     3.0815   3.0824   3.2092   3.3465   3.3776   3.5447   3.5649   3.6565
     3.7229   3.7404   4.0189   4.0348   4.0809   4.0860   4.0941   4.2033
     4.2169   4.2293   4.2369   4.5291   4.5309   4.5620   4.5654   4.6768
     4.6870   4.7322   4.7397   4.8998   5.1816   5.6062   5.6289   5.6545
     5.7137   5.8177   5.8298   5.8580   5.9015   5.9160   5.9224   5.9271
     5.9768   5.9963   6.0365   6.0477   6.2926   6.3150   6.3190   6.3289
     6.3359   6.3380   6.3421   6.3454   6.4376   6.4414   6.5077   6.5804

          k = 0.2500-0.2500-0.0833 (167653 PWs)   bands (ev):

   -20.1654  -7.9331  -6.7045  -6.1749  -6.1741  -5.7366  -5.3450  -5.2387
    -5.2344  -5.0270  -5.0110  -4.9780  -4.9169  -4.8294  -4.7728  -4.7500
    -4.6592  -4.5750  -4.5687  -4.5500  -4.5395  -4.3693  -4.3687  -4.3659
    -4.3385  -4.3369  -4.3319  -4.3319  -4.2812  -4.2775  -4.2753  -4.2638
    -4.2121  -4.1840  -4.1801  -4.1279  -4.1240  -4.1227  -4.0884  -4.0853
    -4.0725  -4.0679  -4.0492  -4.0472  -4.0129  -3.9806  -3.9787  -3.9762
    -3.9747  -3.9726  -3.9426  -3.9143  -3.9085  -3.8846  -3.8823  -3.8795
    -3.8792  -3.8730  -3.8714  -3.8418  -3.8375  -3.7806  -3.7733  -3.7472
    -3.7175  -3.7138  -3.7099  -3.7098  -3.6870  -3.6848  -3.6760  -3.6253
    -3.6234  -3.6203  -3.6184  -3.5356  -3.5315  -3.5133  -3.5099  -3.4777
    -3.4760  -3.4602  -3.4362  -3.4334  -3.3924  -3.3905  -3.3895  -3.3864
    -3.3657  -3.3637  -3.2848  -3.2835  -3.2820  -3.2663  -3.2539  -3.2512
    -3.2370  -3.2361  -3.2303  -3.2301  -3.1872  -3.1836  -3.1661  -3.1652
    -3.1285  -3.1284  -3.1018  -3.0805  -3.0798  -3.0343  -3.0332  -3.0015
    -2.9746  -2.9737  -2.9717  -2.9715  -2.9676  -2.9657  -2.9428  -2.9306
    -2.8929  -2.8925  -2.8704  -2.8469  -2.8451  -2.8423  -2.8398  -2.8358
    -2.8337  -2.8337  -2.7989  -2.7979  -2.7978  -2.7925  -2.7910  -2.7875
    -2.7317  -2.7273  -2.7230  -2.7217  -2.7011  -2.7004  -2.6960  -2.6051
    -2.5961  -2.5950  -2.5869  -2.5850  -2.5798  -2.5796  -2.5773  -2.5692
    -2.5691  -2.5617  -2.5509  -2.5493  -2.5438  -2.5430  -2.5341  -2.5296
    -2.5259  -2.5043  -2.4982  -2.4949  -2.4777  -2.4771  -2.4629  -2.4608
    -2.4522  -2.4506  -2.4303  -2.4264  -2.4194  -2.4147  -2.4110  -2.3893
    -2.3773  -2.3767  -2.3233  -2.3143  -2.3034  -2.3005  -2.2987  -2.2906
    -2.2825  -2.2627  -2.2601  -2.2575  -2.2473  -2.2402  -2.2359  -2.2205
    -2.2190  -2.2133  -2.1905  -2.1835  -2.1812  -2.1777  -2.1709  -2.1695
    -2.1436  -2.1247  -2.1083  -2.0500  -2.0435  -2.0292  -2.0266  -2.0184
    -2.0064  -1.9690  -1.9606  -1.9374  -1.9321  -1.9219  -1.9182  -1.9015
    -1.8832  -1.8805  -1.8698  -1.8607  -1.8360  -1.8332  -1.8234  -1.8199
    -1.8170  -1.8153  -1.8147  -1.7962  -1.7859  -1.7778  -1.7773  -1.7770
    -1.7761  -1.7750  -1.7660  -1.7611  -1.7416  -1.7381  -1.7331  -1.7320
    -1.7198  -1.7190  -1.7151  -1.7122  -1.7082  -1.7072  -1.6742  -1.6651
    -1.6260  -1.6111  -1.6051  -1.5644  -1.5627  -1.5619  -1.5544  -1.5518
    -1.5410  -1.5390  -1.5328  -1.5220  -1.5214  -1.5190  -1.5008  -1.4972
    -1.4634  -1.4580  -1.4440  -1.4245  -1.4192  -1.3839  -1.3830  -1.3335
    -1.3309  -1.3104  -1.2862  -1.2858  -1.2849  -1.2802  -1.2786  -1.2610
    -1.2606  -1.2596  -1.2582  -1.2580  -1.2568  -1.2541  -1.2507  -1.2377
    -1.2265  -1.2226  -1.1942  -1.1928  -1.1926  -1.1704  -1.1692  -1.1659
    -1.1640  -1.1606  -1.1427  -1.1259  -1.1195  -1.1004  -1.1001  -1.0829
    -1.0778  -1.0668  -1.0591  -1.0377  -1.0366  -1.0311  -1.0251  -0.9925
    -0.9881  -0.9806  -0.9780  -0.9779  -0.9686  -0.9518  -0.9504  -0.9388
    -0.9305  -0.9284  -0.9203  -0.9178  -0.9157  -0.9092  -0.9065  -0.8948
    -0.8922  -0.8872  -0.8859  -0.8796  -0.8782  -0.8650  -0.8611  -0.8189
    -0.8163  -0.8155  -0.8153  -0.8092  -0.8020  -0.7840  -0.7738  -0.7683
    -0.7518  -0.7450  -0.7413  -0.7369  -0.7327  -0.7237  -0.7151  -0.6903
    -0.6794  -0.6765  -0.6710  -0.6563  -0.6544  -0.6407  -0.6175  -0.6091
    -0.5913  -0.5891  -0.5532  -0.5529  -0.5514  -0.5482  -0.5433  -0.5420
    -0.5419  -0.5413  -0.5355  -0.5350  -0.5044  -0.5025  -0.5015  -0.5012
    -0.5010  -0.4871  -0.4853  -0.4613  -0.4570  -0.1976  -0.1863  -0.1494
    -0.1201  -0.1072  -0.0514   0.0988   0.1023   0.1411   0.4124   0.4253
     0.7487   0.7721   0.7988   0.8035   0.8467   0.8563   1.0021   1.0286
     1.1381   1.1403   1.2575   1.7505   1.7851   1.7954   1.8319   1.8322
     1.9500   1.9788   2.0193   2.0478   2.2046   2.2139   2.4878   2.5110
     2.5374   2.5423   2.9602   2.9795   2.9968   3.0081   3.0145   3.0212
     3.0815   3.0824   3.2092   3.3465   3.3776   3.5447   3.5649   3.6565
     3.7229   3.7404   4.0189   4.0348   4.0809   4.0860   4.0941   4.2033
     4.2169   4.2293   4.2369   4.5291   4.5309   4.5620   4.5654   4.6768
     4.6870   4.7322   4.7397   4.8998   5.1816   5.6062   5.6289   5.6545
     5.7137   5.8176   5.8298   5.8580   5.9015   5.9160   5.9224   5.9271
     5.9773   5.9959   6.0365   6.0476   6.2928   6.3149   6.3190   6.3289
     6.3358   6.3380   6.3421   6.3454   6.4366   6.4423   6.5078   6.5804

          k =-0.2500 0.2500 0.2500 (167588 PWs)   bands (ev):

   -20.1654  -7.9331  -6.7045  -6.1749  -6.1741  -5.7366  -5.3450  -5.2387
    -5.2344  -5.0270  -5.0110  -4.9780  -4.9169  -4.8294  -4.7728  -4.7500
    -4.6592  -4.5750  -4.5687  -4.5500  -4.5395  -4.3693  -4.3687  -4.3659
    -4.3385  -4.3369  -4.3319  -4.3319  -4.2812  -4.2775  -4.2753  -4.2638
    -4.2121  -4.1840  -4.1801  -4.1279  -4.1240  -4.1227  -4.0884  -4.0853
    -4.0725  -4.0679  -4.0492  -4.0472  -4.0129  -3.9806  -3.9787  -3.9762
    -3.9747  -3.9726  -3.9426  -3.9143  -3.9085  -3.8846  -3.8823  -3.8795
    -3.8792  -3.8730  -3.8714  -3.8418  -3.8375  -3.7806  -3.7733  -3.7472
    -3.7175  -3.7138  -3.7099  -3.7098  -3.6870  -3.6848  -3.6760  -3.6253
    -3.6234  -3.6203  -3.6184  -3.5356  -3.5315  -3.5133  -3.5099  -3.4777
    -3.4760  -3.4602  -3.4362  -3.4334  -3.3924  -3.3905  -3.3895  -3.3864
    -3.3657  -3.3637  -3.2848  -3.2835  -3.2820  -3.2663  -3.2539  -3.2512
    -3.2370  -3.2361  -3.2303  -3.2301  -3.1872  -3.1836  -3.1661  -3.1652
    -3.1285  -3.1284  -3.1018  -3.0805  -3.0798  -3.0343  -3.0332  -3.0015
    -2.9746  -2.9736  -2.9717  -2.9715  -2.9676  -2.9657  -2.9428  -2.9306
    -2.8929  -2.8924  -2.8704  -2.8469  -2.8451  -2.8423  -2.8398  -2.8358
    -2.8337  -2.8337  -2.7989  -2.7979  -2.7978  -2.7925  -2.7910  -2.7874
    -2.7317  -2.7273  -2.7230  -2.7217  -2.7011  -2.7004  -2.6960  -2.6051
    -2.5961  -2.5950  -2.5869  -2.5850  -2.5798  -2.5796  -2.5773  -2.5692
    -2.5690  -2.5617  -2.5509  -2.5493  -2.5438  -2.5430  -2.5341  -2.5296
    -2.5258  -2.5043  -2.4982  -2.4949  -2.4777  -2.4771  -2.4629  -2.4608
    -2.4522  -2.4506  -2.4303  -2.4264  -2.4194  -2.4147  -2.4110  -2.3893
    -2.3773  -2.3767  -2.3233  -2.3143  -2.3034  -2.3005  -2.2987  -2.2906
    -2.2825  -2.2627  -2.2601  -2.2575  -2.2473  -2.2402  -2.2359  -2.2205
    -2.2190  -2.2133  -2.1905  -2.1835  -2.1812  -2.1777  -2.1709  -2.1695
    -2.1436  -2.1247  -2.1084  -2.0500  -2.0435  -2.0291  -2.0266  -2.0184
    -2.0064  -1.9690  -1.9606  -1.9374  -1.9322  -1.9219  -1.9182  -1.9015
    -1.8831  -1.8805  -1.8698  -1.8607  -1.8360  -1.8332  -1.8234  -1.8199
    -1.8170  -1.8153  -1.8147  -1.7962  -1.7859  -1.7778  -1.7773  -1.7770
    -1.7761  -1.7750  -1.7660  -1.7611  -1.7416  -1.7381  -1.7331  -1.7320
    -1.7198  -1.7190  -1.7151  -1.7122  -1.7082  -1.7072  -1.6741  -1.6651
    -1.6260  -1.6111  -1.6051  -1.5644  -1.5627  -1.5619  -1.5543  -1.5518
    -1.5410  -1.5390  -1.5328  -1.5220  -1.5214  -1.5190  -1.5008  -1.4972
    -1.4634  -1.4580  -1.4440  -1.4245  -1.4192  -1.3839  -1.3830  -1.3335
    -1.3309  -1.3104  -1.2862  -1.2858  -1.2849  -1.2802  -1.2786  -1.2610
    -1.2606  -1.2596  -1.2582  -1.2580  -1.2568  -1.2540  -1.2507  -1.2377
    -1.2265  -1.2226  -1.1942  -1.1928  -1.1926  -1.1704  -1.1692  -1.1659
    -1.1640  -1.1606  -1.1427  -1.1259  -1.1195  -1.1004  -1.1001  -1.0829
    -1.0778  -1.0668  -1.0591  -1.0378  -1.0366  -1.0311  -1.0251  -0.9925
    -0.9881  -0.9806  -0.9780  -0.9779  -0.9686  -0.9518  -0.9504  -0.9388
    -0.9305  -0.9284  -0.9203  -0.9178  -0.9157  -0.9092  -0.9065  -0.8948
    -0.8922  -0.8872  -0.8859  -0.8796  -0.8782  -0.8650  -0.8611  -0.8189
    -0.8163  -0.8155  -0.8153  -0.8092  -0.8020  -0.7840  -0.7738  -0.7683
    -0.7518  -0.7450  -0.7413  -0.7369  -0.7327  -0.7237  -0.7151  -0.6903
    -0.6794  -0.6765  -0.6710  -0.6563  -0.6544  -0.6407  -0.6175  -0.6091
    -0.5913  -0.5891  -0.5532  -0.5529  -0.5515  -0.5482  -0.5433  -0.5420
    -0.5419  -0.5413  -0.5355  -0.5350  -0.5044  -0.5025  -0.5015  -0.5012
    -0.5010  -0.4870  -0.4853  -0.4613  -0.4570  -0.1976  -0.1863  -0.1493
    -0.1201  -0.1072  -0.0514   0.0988   0.1023   0.1411   0.4124   0.4253
     0.7487   0.7721   0.7988   0.8035   0.8467   0.8563   1.0021   1.0286
     1.1381   1.1403   1.2575   1.7505   1.7852   1.7954   1.8319   1.8322
     1.9500   1.9788   2.0193   2.0478   2.2046   2.2139   2.4878   2.5110
     2.5374   2.5423   2.9602   2.9795   2.9968   3.0081   3.0145   3.0212
     3.0814   3.0824   3.2092   3.3465   3.3776   3.5447   3.5649   3.6565
     3.7229   3.7404   4.0189   4.0348   4.0809   4.0860   4.0941   4.2034
     4.2170   4.2293   4.2369   4.5291   4.5309   4.5620   4.5654   4.6768
     4.6870   4.7322   4.7396   4.8995   5.1791   5.6062   5.6290   5.6547
     5.7014   5.8077   5.8298   5.8605   5.9011   5.9193   5.9223   5.9276
     5.9684   6.0144   6.0364   6.1073   6.2652   6.3165   6.3291   6.3311
     6.3345   6.3411   6.3452   6.3770   6.4179   6.5182   6.5290   6.5767

     the Fermi energy is     1.0844 ev

!    total energy              =   -7379.98397165 Ry
     Harris-Foulkes estimate   =   -7379.98397166 Ry
     estimated scf accuracy    <          8.1E-09 Ry

     The total energy is the sum of the following terms:

     one-electron contribution =  -48829.61032094 Ry
     hartree contribution      =   24967.88427291 Ry
     xc contribution           =   -3556.26203480 Ry
     ewald contribution        =   20038.00294410 Ry
     smearing contrib. (-TS)   =       0.00116708 Ry

     convergence has been achieved in  26 iterations

     Writing output data file 3912279.save

     init_run     :    105.57s CPU    110.76s WALL (       1 calls)
     electrons    :   6531.53s CPU   6766.00s WALL (       1 calls)

     Called by init_run:
     wfcinit      :     77.16s CPU     82.03s WALL (       1 calls)
     potinit      :      3.44s CPU      3.50s WALL (       1 calls)

     Called by electrons:
     c_bands      :   5120.73s CPU   5309.78s WALL (      27 calls)
     sum_band     :    955.88s CPU    996.68s WALL (      27 calls)
     v_of_rho     :     17.95s CPU     19.13s WALL (      27 calls)
     newd         :    447.03s CPU    449.97s WALL (      27 calls)
     mix_rho      :      3.26s CPU      3.52s WALL (      27 calls)

     Called by c_bands:
     init_us_2    :      8.69s CPU      8.93s WALL (     330 calls)
     cegterg      :   5007.35s CPU   5195.66s WALL (     162 calls)

     Called by *egterg:
     h_psi        :   2151.53s CPU   2318.25s WALL (     829 calls)
     s_psi        :    199.05s CPU    200.26s WALL (     829 calls)
     g_psi        :      4.38s CPU      4.36s WALL (     661 calls)
     cdiaghg      :   1137.78s CPU   1140.23s WALL (     817 calls)

     Called by h_psi:
     add_vuspsi   :    199.40s CPU    200.53s WALL (     829 calls)

     General routines
     calbec       :    479.89s CPU    481.09s WALL (     991 calls)
     fft          :    202.55s CPU    204.74s WALL (     432 calls)
     ffts         :      1.85s CPU      2.00s WALL (      54 calls)
     fftw         :   1930.34s CPU   2122.66s WALL (  428096 calls)
     interpolate  :      4.59s CPU      5.06s WALL (      54 calls)
     davcio       :      0.00s CPU      0.10s WALL (       6 calls)

     Parallel routines
     fft_scatter  :   1657.32s CPU   1830.55s WALL (  428582 calls)

     PWSCF        :     1h50m CPU        1h54m WALL


   This run was terminated on:  18:47: 9   8Aug2015            

=------------------------------------------------------------------------------=
   JOB DONE.
=------------------------------------------------------------------------------=
