Setting SGE environment for SCC

     Program PWSCF v.5.1.2 starts on  9Aug2015 at  0:38:21 

     This program is part of the open-source Quantum ESPRESSO suite
     for quantum simulation of materials; please cite
         "P. Giannozzi et al., J. Phys.:Condens. Matter 21 395502 (2009);
          URL http://www.quantum-espresso.org", 
     in publications or presentations arising from this work. More details at
     http://www.quantum-espresso.org/quote

     Parallel version (MPI), running on    32 processors
     R & G space division:  proc/nbgrp/npool/nimage =      32
     Reading input from top.O1.Au62.d.3.4.phi.45.psi.0.in
Warning: card &IONS ignored
Warning: card / ignored
Warning: card &CELL ignored
Warning: card / ignored

     Current dimensions of program PWSCF are:
     Max number of different atomic species (ntypx) = 10
     Max number of k-points (npk) =  40000
     Max angular momentum in pseudopotentials (lmaxx) =  3

     Subspace diagonalization in iterative solution of the eigenvalue problem:
     a serial algorithm will be used


     Parallelization info
     --------------------
     sticks:   dense  smooth     PW     G-vecs:    dense   smooth      PW
     Min         578     289     74               118518    41891    5486
     Max         579     290     75               118533    41932    5497
     Sum       18505    9265   2385              3792731  1341081  175711


     Title: 
     top.O1.Au62.d.3.4.phi.45.psi.0                                             


     bravais-lattice index     =            8
     lattice parameter (alat)  =      24.1233  a.u.
     unit-cell volume          =   28076.2361 (a.u.)^3
     number of atoms/cell      =           75
     number of atomic types    =            3
     number of electrons       =       800.00
     number of Kohn-Sham states=          480
     kinetic-energy cutoff     =      50.0000  Ry
     charge density cutoff     =     400.0000  Ry
     convergence threshold     =      1.0E-08
     mixing beta               =       0.7000
     number of iterations used =            8  plain     mixing
     Exchange-correlation      =  SLA  PW   PBE  PBE ( 1  4  3  4 0 0)

     celldm(1)=  24.123277  celldm(2)=   1.000000  celldm(3)=   2.000000
     celldm(4)=   0.000000  celldm(5)=   0.000000  celldm(6)=   0.000000

     crystal axes: (cart. coord. in units of alat)
               a(1) = (   1.000000   0.000000   0.000000 )  
               a(2) = (   0.000000   1.000000   0.000000 )  
               a(3) = (   0.000000   0.000000   2.000000 )  

     reciprocal axes: (cart. coord. in units 2 pi/alat)
               b(1) = (  1.000000  0.000000  0.000000 )  
               b(2) = (  0.000000  1.000000  0.000000 )  
               b(3) = (  0.000000  0.000000  0.500000 )  


     PseudoPot. # 1 for Au read from file:
     /home/scc/andrejb/qe/pseudo/Au.pbe-nd-van.UPF
     MD5 check sum: 458681b50f36d87ef23c61b04bba420a
     Pseudo is Ultrasoft + core correction, Zval = 11.0
     Generated by new atomic code, or converted to UPF format
     Using radial grid of  985 points,  3 beta functions with: 
                l(1) =   1
                l(2) =   2
                l(3) =   2
     Q(r) pseudized with  8 coefficients,  rinner =    1.100   1.100   1.100
                                                       1.100   1.100

     PseudoPot. # 2 for H  read from file:
     /home/scc/andrejb/qe/pseudo/H.pbe-van_ak.UPF
     MD5 check sum: 403db7282739603aa925980fa9b8608d
     Pseudo is Ultrasoft, Zval =  1.0
     Generated by new atomic code, or converted to UPF format
     Using radial grid of  615 points,  1 beta functions with: 
                l(1) =   0
     Q(r) pseudized with  8 coefficients,  rinner =    0.800

     PseudoPot. # 3 for O  read from file:
     /home/scc/andrejb/qe/pseudo/O.pbe-van_ak.UPF
     MD5 check sum: 4b8c549914a63cae506c6ff22b5af4fe
     Pseudo is Ultrasoft, Zval =  6.0
     Generated by new atomic code, or converted to UPF format
     Using radial grid of  737 points,  4 beta functions with: 
                l(1) =   0
                l(2) =   0
                l(3) =   1
                l(4) =   1
     Q(r) pseudized with  8 coefficients,  rinner =    0.800   0.800   0.800


     atomic species   valence    mass     pseudopotential
        Au            11.00   196.96657     Au( 1.00)
        H              1.00     1.01000     H ( 1.00)
        O              6.00    16.00000     O ( 1.00)

     No symmetry found



   Cartesian axes

     site n.     atom                  positions (alat units)
         1           O   tau(   1) = (   0.4998324   0.3332216   0.9693358  )
         2           H   tau(   2) = (   0.4942419   0.2722342   1.0148297  )
         3           H   tau(   3) = (   0.5052408   0.3923724   1.0171934  )
         4           Au  tau(   4) = (   0.0000000   0.0000000   0.0000000  )
         5           Au  tau(   5) = (   0.3332217   0.0000000   0.0000000  )
         6           Au  tau(   6) = (   0.6664434   0.0000000   0.0000000  )
         7           Au  tau(   7) = (   0.1666109   0.1666109   0.0000000  )
         8           Au  tau(   8) = (   0.4998326   0.1666109   0.0000000  )
         9           Au  tau(   9) = (   0.8330542   0.1666109   0.0000000  )
        10           Au  tau(  10) = (   0.0000000   0.3332217   0.0000000  )
        11           Au  tau(  11) = (   0.3332217   0.3332217   0.0000000  )
        12           Au  tau(  12) = (   0.6664434   0.3332217   0.0000000  )
        13           Au  tau(  13) = (   0.1666109   0.4998326   0.0000000  )
        14           Au  tau(  14) = (   0.4998326   0.4998326   0.0000000  )
        15           Au  tau(  15) = (   0.8330542   0.4998326   0.0000000  )
        16           Au  tau(  16) = (   0.0000000   0.6664434   0.0000000  )
        17           Au  tau(  17) = (   0.3332217   0.6664434   0.0000000  )
        18           Au  tau(  18) = (   0.6664434   0.6664434   0.0000000  )
        19           Au  tau(  19) = (   0.1666109   0.8330542   0.0000000  )
        20           Au  tau(  20) = (   0.4998326   0.8330542   0.0000000  )
        21           Au  tau(  21) = (   0.8330542   0.8330542   0.0000000  )
        22           Au  tau(  22) = (   0.1666109   0.0000000   0.1666109  )
        23           Au  tau(  23) = (   0.4998326   0.0000000   0.1666109  )
        24           Au  tau(  24) = (   0.8330542   0.0000000   0.1666109  )
        25           Au  tau(  25) = (   0.0000000   0.1666109   0.1666109  )
        26           Au  tau(  26) = (   0.3332217   0.1666109   0.1666109  )
        27           Au  tau(  27) = (   0.6664434   0.1666109   0.1666109  )
        28           Au  tau(  28) = (   0.1666109   0.3332217   0.1666109  )
        29           Au  tau(  29) = (   0.4998326   0.3332217   0.1666109  )
        30           Au  tau(  30) = (   0.8330542   0.3332217   0.1666109  )
        31           Au  tau(  31) = (   0.0000000   0.4998326   0.1666109  )
        32           Au  tau(  32) = (   0.3332217   0.4998326   0.1666109  )
        33           Au  tau(  33) = (   0.6664434   0.4998326   0.1666109  )
        34           Au  tau(  34) = (   0.1666109   0.6664434   0.1666109  )
        35           Au  tau(  35) = (   0.4998326   0.6664434   0.1666109  )
        36           Au  tau(  36) = (   0.8330542   0.6664434   0.1666109  )
        37           Au  tau(  37) = (   0.0000000   0.8330542   0.1666109  )
        38           Au  tau(  38) = (   0.3332217   0.8330542   0.1666109  )
        39           Au  tau(  39) = (   0.6664434   0.8330542   0.1666109  )
        40           Au  tau(  40) = (  -0.0000182  -0.0000182   0.3335478  )
        41           Au  tau(  41) = (   0.3332215  -0.0000181   0.3335473  )
        42           Au  tau(  42) = (   0.6664447  -0.0000183   0.3335481  )
        43           Au  tau(  43) = (  -0.0000181   0.3332215   0.3335473  )
        44           Au  tau(  44) = (   0.3332215   0.3332215   0.3335468  )
        45           Au  tau(  45) = (   0.6664445   0.3332215   0.3335477  )
        46           Au  tau(  46) = (  -0.0000183   0.6664447   0.3335481  )
        47           Au  tau(  47) = (   0.3332215   0.6664445   0.3335477  )
        48           Au  tau(  48) = (   0.6664446   0.6664446   0.3335486  )
        49           Au  tau(  49) = (   0.1666097   0.1666097   0.3335483  )
        50           Au  tau(  50) = (   0.4998320   0.1666098   0.3335477  )
        51           Au  tau(  51) = (   0.8330732   0.1666096   0.3335480  )
        52           Au  tau(  52) = (   0.1666098   0.4998320   0.3335477  )
        53           Au  tau(  53) = (   0.4998322   0.4998322   0.3335470  )
        54           Au  tau(  54) = (   0.8330731   0.4998322   0.3335474  )
        55           Au  tau(  55) = (   0.1666096   0.8330732   0.3335480  )
        56           Au  tau(  56) = (   0.4998322   0.8330731   0.3335474  )
        57           Au  tau(  57) = (   0.8330731   0.8330731   0.3335478  )
        58           Au  tau(  58) = (   0.1666104  -0.0000111   0.4993095  )
        59           Au  tau(  59) = (   0.4998323  -0.0000112   0.4993099  )
        60           Au  tau(  60) = (   0.8330660  -0.0000111   0.4993009  )
        61           Au  tau(  61) = (  -0.0000111   0.1666104   0.4993095  )
        62           Au  tau(  62) = (   0.3332213   0.1666106   0.4993185  )
        63           Au  tau(  63) = (   0.6664437   0.1666106   0.4993187  )
        64           Au  tau(  64) = (   0.1666106   0.3332213   0.4993185  )
        65           Au  tau(  65) = (   0.4998324   0.3332216   0.4993185  )
        66           Au  tau(  66) = (   0.8330658   0.3332215   0.4993102  )
        67           Au  tau(  67) = (  -0.0000112   0.4998323   0.4993099  )
        68           Au  tau(  68) = (   0.3332216   0.4998324   0.4993185  )
        69           Au  tau(  69) = (   0.6664437   0.4998325   0.4993187  )
        70           Au  tau(  70) = (   0.1666106   0.6664437   0.4993187  )
        71           Au  tau(  71) = (   0.4998325   0.6664437   0.4993187  )
        72           Au  tau(  72) = (   0.8330658   0.6664438   0.4993102  )
        73           Au  tau(  73) = (  -0.0000111   0.8330660   0.4993009  )
        74           Au  tau(  74) = (   0.3332215   0.8330658   0.4993102  )
        75           Au  tau(  75) = (   0.6664438   0.8330658   0.4993102  )

     number of k points=     6  Marzari-Vanderbilt smearing, width (Ry)=  0.0200
                       cart. coord. in units 2pi/alat
        k(    1) = (   0.2500000   0.2500000   0.0833333), wk =   0.3333333
        k(    2) = (   0.2500000   0.2500000  -0.2500000), wk =   0.3333333
        k(    3) = (  -0.2500000  -0.2500000   0.0833333), wk =   0.3333333
        k(    4) = (  -0.2500000   0.2500000  -0.0833333), wk =   0.3333333
        k(    5) = (   0.2500000  -0.2500000  -0.0833333), wk =   0.3333333
        k(    6) = (  -0.2500000   0.2500000   0.2500000), wk =   0.3333333

     Dense  grid:  3792731 G-vectors     FFT dimensions: ( 160, 160, 320)

     Smooth grid:  1341081 G-vectors     FFT dimensions: ( 120, 120, 225)

     Largest allocated arrays     est. size (Mb)     dimensions
        Kohn-Sham Wavefunctions        38.58 Mb     (    5267,  480)
        NL pseudopotentials            76.03 Mb     (    5267,  946)
        Each V/rho on FFT grid          3.91 Mb     (  256000)
        Each G-vector array             0.90 Mb     (  118520)
        G-vector shells                 0.08 Mb     (   10286)
     Largest temporary arrays     est. size (Mb)     dimensions
        Auxiliary wavefunctions       154.31 Mb     (    5267, 1920)
        Each subspace H/S matrix       56.25 Mb     (    1920, 1920)
        Each <psi_i|beta_j> matrix      6.93 Mb     (     946,  480)
        Arrays for rho mixing          31.25 Mb     (  256000,    8)

     Initial potential from superposition of free atoms
     Check: negative starting charge=   -1.944527

     starting charge  799.16392, renormalised to  800.00000

     negative rho (up, down):  1.947E+00 0.000E+00
     Starting wfc are  654 randomized atomic wfcs

     total cpu time spent up to now is      135.5 secs

     Self-consistent Calculation

     iteration #  1     ecut=    50.00 Ry     beta=0.70
     Davidson diagonalization with overlap
     ethr =  1.00E-02,  avg # of iterations =  3.0

     Threshold (ethr) on eigenvalues was too large:
     Diagonalizing with lowered threshold

     Davidson diagonalization with overlap
     ethr =  5.02E-04,  avg # of iterations =  2.0

     negative rho (up, down):  1.932E+00 0.000E+00

     total cpu time spent up to now is      614.3 secs

     total energy              =   -7377.39559991 Ry
     Harris-Foulkes estimate   =   -7380.96449010 Ry
     estimated scf accuracy    <       4.52970614 Ry

     iteration #  2     ecut=    50.00 Ry     beta=0.70
     Davidson diagonalization with overlap
     ethr =  5.66E-04,  avg # of iterations = 11.0

     negative rho (up, down):  1.930E+00 0.000E+00

     total cpu time spent up to now is     1383.8 secs

     total energy              =   -7368.72706939 Ry
     Harris-Foulkes estimate   =   -7387.99201301 Ry
     estimated scf accuracy    <      99.11209053 Ry

     iteration #  3     ecut=    50.00 Ry     beta=0.70
     Davidson diagonalization with overlap
     ethr =  5.66E-04,  avg # of iterations =  6.0

     negative rho (up, down):  1.947E+00 0.000E+00

     total cpu time spent up to now is     1878.0 secs

     total energy              =   -7378.57273796 Ry
     Harris-Foulkes estimate   =   -7380.68529901 Ry
     estimated scf accuracy    <       8.35966241 Ry

     iteration #  4     ecut=    50.00 Ry     beta=0.70
     Davidson diagonalization with overlap
     ethr =  5.66E-04,  avg # of iterations =  6.7

     negative rho (up, down):  1.958E+00 0.000E+00

     total cpu time spent up to now is     2182.7 secs

     total energy              =   -7379.88187939 Ry
     Harris-Foulkes estimate   =   -7380.19750281 Ry
     estimated scf accuracy    <       0.87906546 Ry

     iteration #  5     ecut=    50.00 Ry     beta=0.70
     Davidson diagonalization with overlap
     ethr =  1.10E-04,  avg # of iterations =  8.3

     negative rho (up, down):  1.960E+00 0.000E+00

     total cpu time spent up to now is     2542.5 secs

     total energy              =   -7379.80620865 Ry
     Harris-Foulkes estimate   =   -7380.16033007 Ry
     estimated scf accuracy    <       2.66380492 Ry

     iteration #  6     ecut=    50.00 Ry     beta=0.70
     Davidson diagonalization with overlap
     ethr =  1.10E-04,  avg # of iterations =  7.0

     negative rho (up, down):  1.966E+00 0.000E+00

     total cpu time spent up to now is     2853.5 secs

     total energy              =   -7379.97787730 Ry
     Harris-Foulkes estimate   =   -7380.02853127 Ry
     estimated scf accuracy    <       0.30987114 Ry

     iteration #  7     ecut=    50.00 Ry     beta=0.70
     Davidson diagonalization with overlap
     ethr =  3.87E-05,  avg # of iterations =  7.3

     negative rho (up, down):  1.968E+00 0.000E+00

     total cpu time spent up to now is     3154.3 secs

     total energy              =   -7379.98256078 Ry
     Harris-Foulkes estimate   =   -7380.00356849 Ry
     estimated scf accuracy    <       0.08255981 Ry

     iteration #  8     ecut=    50.00 Ry     beta=0.70
     Davidson diagonalization with overlap
     ethr =  1.03E-05,  avg # of iterations = 11.7

     negative rho (up, down):  1.969E+00 0.000E+00

     total cpu time spent up to now is     3525.4 secs

     total energy              =   -7379.97926472 Ry
     Harris-Foulkes estimate   =   -7379.99646542 Ry
     estimated scf accuracy    <       0.06812770 Ry

     iteration #  9     ecut=    50.00 Ry     beta=0.70
     Davidson diagonalization with overlap
     ethr =  8.52E-06,  avg # of iterations =  9.5

     negative rho (up, down):  1.969E+00 0.000E+00

     total cpu time spent up to now is     3872.7 secs

     total energy              =   -7379.97756341 Ry
     Harris-Foulkes estimate   =   -7379.98880503 Ry
     estimated scf accuracy    <       0.04524204 Ry

     iteration # 10     ecut=    50.00 Ry     beta=0.70
     Davidson diagonalization with overlap
     ethr =  5.66E-06,  avg # of iterations = 12.2

     negative rho (up, down):  1.971E+00 0.000E+00

     total cpu time spent up to now is     4239.6 secs

     total energy              =   -7379.97802746 Ry
     Harris-Foulkes estimate   =   -7379.98344381 Ry
     estimated scf accuracy    <       0.01630266 Ry

     iteration # 11     ecut=    50.00 Ry     beta=0.70
     Davidson diagonalization with overlap
     ethr =  2.04E-06,  avg # of iterations =  9.5

     negative rho (up, down):  1.972E+00 0.000E+00

     total cpu time spent up to now is     4566.1 secs

     total energy              =   -7379.97860055 Ry
     Harris-Foulkes estimate   =   -7379.98017122 Ry
     estimated scf accuracy    <       0.00565170 Ry

     iteration # 12     ecut=    50.00 Ry     beta=0.70
     Davidson diagonalization with overlap
     ethr =  7.06E-07,  avg # of iterations =  2.0

     negative rho (up, down):  1.972E+00 0.000E+00

     total cpu time spent up to now is     4799.5 secs

     total energy              =   -7379.97793088 Ry
     Harris-Foulkes estimate   =   -7379.97917583 Ry
     estimated scf accuracy    <       0.00171073 Ry

     iteration # 13     ecut=    50.00 Ry     beta=0.70
     Davidson diagonalization with overlap
     c_bands:  1 eigenvalues not converged
     c_bands:  1 eigenvalues not converged
     ethr =  2.14E-07,  avg # of iterations = 17.0

     negative rho (up, down):  1.971E+00 0.000E+00

     total cpu time spent up to now is     5221.6 secs

     total energy              =   -7379.97810823 Ry
     Harris-Foulkes estimate   =   -7379.97836018 Ry
     estimated scf accuracy    <       0.00063175 Ry

     iteration # 14     ecut=    50.00 Ry     beta=0.70
     Davidson diagonalization with overlap
     ethr =  7.90E-08,  avg # of iterations =  3.0

     negative rho (up, down):  1.971E+00 0.000E+00

     total cpu time spent up to now is     5483.2 secs

     total energy              =   -7379.97818836 Ry
     Harris-Foulkes estimate   =   -7379.97831251 Ry
     estimated scf accuracy    <       0.00044013 Ry

     iteration # 15     ecut=    50.00 Ry     beta=0.70
     Davidson diagonalization with overlap
     ethr =  5.50E-08,  avg # of iterations =  2.0

     negative rho (up, down):  1.971E+00 0.000E+00

     total cpu time spent up to now is     5718.2 secs

     total energy              =   -7379.97820747 Ry
     Harris-Foulkes estimate   =   -7379.97830675 Ry
     estimated scf accuracy    <       0.00049728 Ry

     iteration # 16     ecut=    50.00 Ry     beta=0.70
     Davidson diagonalization with overlap
     ethr =  5.50E-08,  avg # of iterations =  2.0

     negative rho (up, down):  1.971E+00 0.000E+00

     total cpu time spent up to now is     5955.0 secs

     total energy              =   -7379.97824530 Ry
     Harris-Foulkes estimate   =   -7379.97827180 Ry
     estimated scf accuracy    <       0.00010458 Ry

     iteration # 17     ecut=    50.00 Ry     beta=0.70
     Davidson diagonalization with overlap
     ethr =  1.31E-08,  avg # of iterations =  2.0

     negative rho (up, down):  1.971E+00 0.000E+00

     total cpu time spent up to now is     6194.9 secs

     total energy              =   -7379.97824818 Ry
     Harris-Foulkes estimate   =   -7379.97827405 Ry
     estimated scf accuracy    <       0.00019794 Ry

     iteration # 18     ecut=    50.00 Ry     beta=0.70
     Davidson diagonalization with overlap
     ethr =  1.31E-08,  avg # of iterations =  1.0

     negative rho (up, down):  1.971E+00 0.000E+00

     total cpu time spent up to now is     6415.6 secs

     total energy              =   -7379.97825925 Ry
     Harris-Foulkes estimate   =   -7379.97826475 Ry
     estimated scf accuracy    <       0.00002062 Ry

     iteration # 19     ecut=    50.00 Ry     beta=0.70
     Davidson diagonalization with overlap
     ethr =  2.58E-09,  avg # of iterations =  2.0

     negative rho (up, down):  1.971E+00 0.000E+00

     total cpu time spent up to now is     6651.8 secs

     total energy              =   -7379.97826052 Ry
     Harris-Foulkes estimate   =   -7379.97826403 Ry
     estimated scf accuracy    <       0.00001633 Ry

     iteration # 20     ecut=    50.00 Ry     beta=0.70
     Davidson diagonalization with overlap
     ethr =  2.04E-09,  avg # of iterations =  2.0

     negative rho (up, down):  1.971E+00 0.000E+00

     total cpu time spent up to now is     6885.4 secs

     total energy              =   -7379.97826206 Ry
     Harris-Foulkes estimate   =   -7379.97826286 Ry
     estimated scf accuracy    <       0.00000346 Ry

     iteration # 21     ecut=    50.00 Ry     beta=0.70
     Davidson diagonalization with overlap
     ethr =  4.33E-10,  avg # of iterations =  2.0

     negative rho (up, down):  1.971E+00 0.000E+00

     total cpu time spent up to now is     7122.2 secs

     total energy              =   -7379.97826245 Ry
     Harris-Foulkes estimate   =   -7379.97826265 Ry
     estimated scf accuracy    <       0.00000079 Ry

     iteration # 22     ecut=    50.00 Ry     beta=0.70
     Davidson diagonalization with overlap
     ethr =  9.84E-11,  avg # of iterations =  2.0

     negative rho (up, down):  1.971E+00 0.000E+00

     total cpu time spent up to now is     7359.9 secs

     total energy              =   -7379.97826251 Ry
     Harris-Foulkes estimate   =   -7379.97826262 Ry
     estimated scf accuracy    <       0.00000033 Ry

     iteration # 23     ecut=    50.00 Ry     beta=0.70
     Davidson diagonalization with overlap
     ethr =  4.12E-11,  avg # of iterations =  3.0

     negative rho (up, down):  1.971E+00 0.000E+00

     total cpu time spent up to now is     7616.7 secs

     total energy              =   -7379.97826256 Ry
     Harris-Foulkes estimate   =   -7379.97826260 Ry
     estimated scf accuracy    <       0.00000013 Ry

     iteration # 24     ecut=    50.00 Ry     beta=0.70
     Davidson diagonalization with overlap
     ethr =  1.66E-11,  avg # of iterations =  2.0

     negative rho (up, down):  1.971E+00 0.000E+00

     total cpu time spent up to now is     7858.7 secs

     total energy              =   -7379.97826257 Ry
     Harris-Foulkes estimate   =   -7379.97826258 Ry
     estimated scf accuracy    <       0.00000004 Ry

     iteration # 25     ecut=    50.00 Ry     beta=0.70
     Davidson diagonalization with overlap
     ethr =  4.95E-12,  avg # of iterations =  2.0

     negative rho (up, down):  1.971E+00 0.000E+00

     total cpu time spent up to now is     8089.5 secs

     total energy              =   -7379.97826258 Ry
     Harris-Foulkes estimate   =   -7379.97826258 Ry
     estimated scf accuracy    <       0.00000003 Ry

     iteration # 26     ecut=    50.00 Ry     beta=0.70
     Davidson diagonalization with overlap
     ethr =  4.01E-12,  avg # of iterations =  2.0

     negative rho (up, down):  1.971E+00 0.000E+00

     total cpu time spent up to now is     8317.4 secs

     total energy              =   -7379.97826258 Ry
     Harris-Foulkes estimate   =   -7379.97826259 Ry
     estimated scf accuracy    <       0.00000004 Ry

     iteration # 27     ecut=    50.00 Ry     beta=0.70
     Davidson diagonalization with overlap
     ethr =  4.01E-12,  avg # of iterations =  2.0

     negative rho (up, down):  1.971E+00 0.000E+00

     total cpu time spent up to now is     8549.6 secs

     total energy              =   -7379.97826258 Ry
     Harris-Foulkes estimate   =   -7379.97826258 Ry
     estimated scf accuracy    <       0.00000002 Ry

     iteration # 28     ecut=    50.00 Ry     beta=0.70
     Davidson diagonalization with overlap
     ethr =  2.76E-12,  avg # of iterations =  1.0

     negative rho (up, down):  1.971E+00 0.000E+00

     total cpu time spent up to now is     8764.3 secs

     End of self-consistent calculation

          k = 0.2500 0.2500 0.0833 (167653 PWs)   bands (ev):

   -19.1732  -6.9864  -6.7931  -6.2628  -6.2627  -5.8246  -5.4211  -5.3224
    -5.3223  -5.1006  -5.1006  -5.0037  -5.0034  -4.8701  -4.8625  -4.7530
    -4.6645  -4.6605  -4.6393  -4.6392  -4.4582  -4.4570  -4.4568  -4.4301
    -4.4261  -4.4256  -4.4220  -4.3685  -4.3682  -4.3657  -4.3655  -4.3019
    -4.2734  -4.2734  -4.2168  -4.2134  -4.2122  -4.1761  -4.1759  -4.1620
    -4.1577  -4.1389  -4.1389  -4.1014  -4.0691  -4.0690  -4.0666  -4.0635
    -4.0634  -4.0331  -4.0027  -4.0026  -3.9732  -3.9730  -3.9691  -3.9690
    -3.9669  -3.9610  -3.9288  -3.9285  -3.8685  -3.8683  -3.8362  -3.8096
    -3.8030  -3.7995  -3.7991  -3.7769  -3.7768  -3.7650  -3.7146  -3.7146
    -3.7087  -3.7085  -3.6233  -3.6231  -3.6010  -3.6008  -3.5664  -3.5632
    -3.5513  -3.5251  -3.5251  -3.4808  -3.4806  -3.4782  -3.4780  -3.4534
    -3.4532  -3.3728  -3.3727  -3.3709  -3.3574  -3.3415  -3.3389  -3.3260
    -3.3259  -3.3187  -3.3186  -3.2758  -3.2758  -3.2528  -3.2527  -3.2165
    -3.2163  -3.1899  -3.1822  -3.1688  -3.1688  -3.1226  -3.1225  -3.0900
    -3.0625  -3.0620  -3.0614  -3.0608  -3.0569  -3.0569  -3.0292  -3.0206
    -2.9815  -2.9815  -2.9604  -2.9368  -2.9338  -2.9337  -2.9273  -2.9270
    -2.9228  -2.9228  -2.8877  -2.8866  -2.8866  -2.8812  -2.8812  -2.8762
    -2.8210  -2.8151  -2.8111  -2.8110  -2.7889  -2.7888  -2.7836  -2.6949
    -2.6843  -2.6842  -2.6747  -2.6745  -2.6686  -2.6673  -2.6663  -2.6586
    -2.6585  -2.6479  -2.6405  -2.6374  -2.6372  -2.6327  -2.6228  -2.6173
    -2.6154  -2.5932  -2.5826  -2.5824  -2.5666  -2.5666  -2.5495  -2.5495
    -2.5408  -2.5406  -2.5200  -2.5074  -2.5074  -2.5020  -2.5019  -2.4681
    -2.4657  -2.4656  -2.4074  -2.4042  -2.3893  -2.3892  -2.3787  -2.3742
    -2.3510  -2.3509  -2.3468  -2.3341  -2.3339  -2.3224  -2.3221  -2.3055
    -2.3052  -2.2783  -2.2783  -2.2681  -2.2680  -2.2582  -2.2581  -2.2409
    -2.2279  -2.2072  -2.1383  -2.1369  -2.1176  -2.1174  -2.1056  -2.1056
    -2.0556  -2.0553  -2.0402  -2.0206  -2.0081  -2.0081  -1.9899  -1.9716
    -1.9715  -1.9583  -1.9515  -1.9194  -1.9190  -1.9177  -1.9108  -1.9107
    -1.9030  -1.9028  -1.8823  -1.8760  -1.8655  -1.8654  -1.8649  -1.8648
    -1.8638  -1.8634  -1.8497  -1.8297  -1.8296  -1.8263  -1.8208  -1.8080
    -1.8078  -1.8035  -1.8034  -1.7977  -1.7957  -1.7615  -1.7613  -1.7166
    -1.6975  -1.6973  -1.6517  -1.6516  -1.6514  -1.6407  -1.6405  -1.6268
    -1.6266  -1.6192  -1.6190  -1.6087  -1.6084  -1.5882  -1.5881  -1.5512
    -1.5510  -1.5336  -1.5114  -1.5112  -1.4718  -1.4717  -1.4213  -1.4213
    -1.4002  -1.3756  -1.3743  -1.3738  -1.3681  -1.3674  -1.3476  -1.3474
    -1.3465  -1.3464  -1.3445  -1.3442  -1.3436  -1.3424  -1.3409  -1.3142
    -1.3141  -1.2812  -1.2798  -1.2798  -1.2582  -1.2581  -1.2532  -1.2530
    -1.2499  -1.2395  -1.2117  -1.2116  -1.1872  -1.1861  -1.1855  -1.1656
    -1.1543  -1.1541  -1.1405  -1.1250  -1.1248  -1.1179  -1.1178  -1.0794
    -1.0791  -1.0674  -1.0672  -1.0664  -1.0662  -1.0401  -1.0400  -1.0258
    -1.0186  -1.0184  -1.0066  -1.0063  -1.0048  -1.0046  -0.9936  -0.9835
    -0.9825  -0.9759  -0.9759  -0.9690  -0.9649  -0.9647  -0.9486  -0.9070
    -0.9060  -0.9042  -0.9020  -0.8991  -0.8990  -0.8697  -0.8697  -0.8559
    -0.8384  -0.8380  -0.8298  -0.8297  -0.8215  -0.8143  -0.8130  -0.7766
    -0.7764  -0.7651  -0.7651  -0.7448  -0.7447  -0.7293  -0.7051  -0.6970
    -0.6793  -0.6792  -0.6415  -0.6414  -0.6384  -0.6383  -0.6374  -0.6314
    -0.6304  -0.6303  -0.6264  -0.6237  -0.5906  -0.5905  -0.5890  -0.5888
    -0.5880  -0.5876  -0.5737  -0.5735  -0.5452  -0.2828  -0.2769  -0.2311
    -0.2303  -0.1996  -0.1411   0.0115   0.0117   0.0423   0.3270   0.3271
     0.6677   0.6685   0.7116   0.7116   0.7615   0.7619   0.9211   0.9215
     1.0496   1.0507   1.1648   1.6601   1.7027   1.7058   1.7431   1.7434
     1.8804   1.8822   1.9367   1.9371   2.1193   2.1195   2.4048   2.4310
     2.4321   2.4524   2.8872   2.8887   2.9101   2.9119   2.9273   2.9276
     2.9931   2.9937   3.1518   3.2716   3.2724   3.4563   3.4671   3.5681
     3.6400   3.6403   3.9399   3.9405   3.9971   3.9983   3.9985   4.1451
     4.1457   4.1667   4.1687   4.4408   4.4428   4.4792   4.4793   4.5926
     4.5981   4.6601   4.6617   4.9422   5.0387   5.5423   5.5431   5.6211
     5.6246   5.7497   5.7502   5.8219   5.8221   5.8332   5.8386   5.8389
     5.9359   5.9509   5.9825   6.1270   6.2379   6.2388   6.2495   6.2502
     6.2555   6.2651   6.2752   6.3264   6.4267   6.4287   6.5005   6.5547

          k = 0.2500 0.2500-0.2500 (167588 PWs)   bands (ev):

   -19.1732  -6.9864  -6.7931  -6.2628  -6.2627  -5.8246  -5.4211  -5.3224
    -5.3223  -5.1006  -5.1006  -5.0037  -5.0034  -4.8701  -4.8625  -4.7530
    -4.6645  -4.6605  -4.6393  -4.6392  -4.4582  -4.4570  -4.4568  -4.4301
    -4.4261  -4.4256  -4.4220  -4.3685  -4.3682  -4.3657  -4.3655  -4.3019
    -4.2734  -4.2734  -4.2168  -4.2134  -4.2122  -4.1761  -4.1759  -4.1620
    -4.1577  -4.1389  -4.1389  -4.1014  -4.0691  -4.0690  -4.0666  -4.0635
    -4.0634  -4.0331  -4.0027  -4.0026  -3.9732  -3.9730  -3.9691  -3.9690
    -3.9669  -3.9610  -3.9288  -3.9285  -3.8685  -3.8683  -3.8362  -3.8096
    -3.8030  -3.7995  -3.7991  -3.7769  -3.7768  -3.7650  -3.7146  -3.7146
    -3.7087  -3.7085  -3.6233  -3.6231  -3.6010  -3.6008  -3.5664  -3.5632
    -3.5513  -3.5251  -3.5251  -3.4808  -3.4806  -3.4782  -3.4780  -3.4534
    -3.4532  -3.3728  -3.3727  -3.3709  -3.3574  -3.3415  -3.3389  -3.3259
    -3.3259  -3.3187  -3.3186  -3.2758  -3.2758  -3.2528  -3.2527  -3.2165
    -3.2163  -3.1899  -3.1822  -3.1688  -3.1688  -3.1226  -3.1225  -3.0900
    -3.0625  -3.0620  -3.0614  -3.0608  -3.0569  -3.0569  -3.0292  -3.0206
    -2.9815  -2.9815  -2.9604  -2.9368  -2.9338  -2.9337  -2.9273  -2.9270
    -2.9229  -2.9228  -2.8877  -2.8866  -2.8866  -2.8812  -2.8811  -2.8762
    -2.8210  -2.8151  -2.8111  -2.8110  -2.7889  -2.7888  -2.7836  -2.6949
    -2.6843  -2.6842  -2.6747  -2.6745  -2.6686  -2.6673  -2.6663  -2.6586
    -2.6585  -2.6479  -2.6405  -2.6374  -2.6372  -2.6327  -2.6228  -2.6173
    -2.6154  -2.5932  -2.5826  -2.5824  -2.5666  -2.5666  -2.5495  -2.5495
    -2.5407  -2.5406  -2.5201  -2.5074  -2.5074  -2.5020  -2.5019  -2.4681
    -2.4657  -2.4656  -2.4074  -2.4042  -2.3893  -2.3892  -2.3787  -2.3742
    -2.3510  -2.3509  -2.3468  -2.3340  -2.3339  -2.3224  -2.3221  -2.3055
    -2.3052  -2.2783  -2.2783  -2.2681  -2.2680  -2.2582  -2.2581  -2.2409
    -2.2279  -2.2072  -2.1383  -2.1369  -2.1176  -2.1174  -2.1056  -2.1056
    -2.0556  -2.0553  -2.0402  -2.0206  -2.0081  -2.0081  -1.9899  -1.9715
    -1.9715  -1.9583  -1.9515  -1.9194  -1.9190  -1.9177  -1.9108  -1.9107
    -1.9030  -1.9028  -1.8823  -1.8760  -1.8655  -1.8654  -1.8649  -1.8648
    -1.8638  -1.8634  -1.8497  -1.8297  -1.8296  -1.8263  -1.8208  -1.8080
    -1.8078  -1.8035  -1.8034  -1.7977  -1.7957  -1.7615  -1.7613  -1.7166
    -1.6975  -1.6973  -1.6517  -1.6516  -1.6514  -1.6407  -1.6405  -1.6268
    -1.6265  -1.6192  -1.6190  -1.6087  -1.6084  -1.5882  -1.5881  -1.5512
    -1.5510  -1.5336  -1.5114  -1.5112  -1.4718  -1.4717  -1.4213  -1.4213
    -1.4002  -1.3756  -1.3743  -1.3738  -1.3681  -1.3674  -1.3476  -1.3474
    -1.3465  -1.3464  -1.3445  -1.3442  -1.3436  -1.3424  -1.3409  -1.3142
    -1.3141  -1.2812  -1.2798  -1.2798  -1.2582  -1.2581  -1.2532  -1.2530
    -1.2499  -1.2395  -1.2117  -1.2115  -1.1872  -1.1861  -1.1855  -1.1656
    -1.1543  -1.1541  -1.1405  -1.1250  -1.1248  -1.1179  -1.1178  -1.0793
    -1.0791  -1.0674  -1.0672  -1.0664  -1.0662  -1.0401  -1.0400  -1.0258
    -1.0186  -1.0184  -1.0066  -1.0063  -1.0048  -1.0046  -0.9936  -0.9835
    -0.9825  -0.9759  -0.9759  -0.9690  -0.9649  -0.9647  -0.9486  -0.9070
    -0.9060  -0.9042  -0.9020  -0.8991  -0.8990  -0.8697  -0.8697  -0.8559
    -0.8384  -0.8380  -0.8298  -0.8297  -0.8215  -0.8143  -0.8130  -0.7766
    -0.7764  -0.7651  -0.7651  -0.7448  -0.7447  -0.7293  -0.7051  -0.6970
    -0.6793  -0.6791  -0.6415  -0.6414  -0.6384  -0.6383  -0.6374  -0.6314
    -0.6304  -0.6303  -0.6264  -0.6237  -0.5906  -0.5905  -0.5889  -0.5888
    -0.5880  -0.5876  -0.5737  -0.5735  -0.5452  -0.2828  -0.2769  -0.2311
    -0.2303  -0.1996  -0.1411   0.0115   0.0117   0.0423   0.3270   0.3271
     0.6677   0.6685   0.7116   0.7116   0.7615   0.7619   0.9211   0.9215
     1.0496   1.0507   1.1648   1.6601   1.7027   1.7058   1.7431   1.7434
     1.8804   1.8822   1.9367   1.9371   2.1194   2.1195   2.4048   2.4310
     2.4321   2.4524   2.8872   2.8887   2.9101   2.9119   2.9273   2.9276
     2.9931   2.9937   3.1519   3.2716   3.2724   3.4563   3.4671   3.5681
     3.6400   3.6403   3.9399   3.9405   3.9971   3.9983   3.9985   4.1451
     4.1457   4.1668   4.1688   4.4408   4.4428   4.4792   4.4793   4.5926
     4.5981   4.6600   4.6617   4.9427   5.0351   5.5423   5.5431   5.6213
     5.6245   5.7497   5.7502   5.8091   5.8221   5.8222   5.8386   5.8389
     5.9383   5.9509   6.0485   6.1088   6.2379   6.2388   6.2495   6.2502
     6.2554   6.2651   6.2939   6.3771   6.4276   6.4317   6.5133   6.5532

          k =-0.2500-0.2500 0.0833 (167653 PWs)   bands (ev):

   -19.1732  -6.9864  -6.7931  -6.2628  -6.2627  -5.8246  -5.4211  -5.3224
    -5.3223  -5.1006  -5.1006  -5.0037  -5.0034  -4.8701  -4.8625  -4.7530
    -4.6645  -4.6605  -4.6393  -4.6392  -4.4582  -4.4570  -4.4568  -4.4301
    -4.4261  -4.4256  -4.4220  -4.3685  -4.3682  -4.3657  -4.3655  -4.3019
    -4.2734  -4.2734  -4.2168  -4.2134  -4.2122  -4.1761  -4.1759  -4.1620
    -4.1577  -4.1389  -4.1389  -4.1014  -4.0691  -4.0690  -4.0666  -4.0635
    -4.0634  -4.0331  -4.0027  -4.0026  -3.9732  -3.9730  -3.9691  -3.9690
    -3.9669  -3.9610  -3.9288  -3.9285  -3.8685  -3.8683  -3.8362  -3.8096
    -3.8030  -3.7995  -3.7991  -3.7769  -3.7768  -3.7650  -3.7146  -3.7146
    -3.7087  -3.7085  -3.6233  -3.6231  -3.6010  -3.6008  -3.5664  -3.5632
    -3.5513  -3.5251  -3.5251  -3.4808  -3.4806  -3.4782  -3.4780  -3.4534
    -3.4532  -3.3728  -3.3727  -3.3709  -3.3574  -3.3415  -3.3389  -3.3260
    -3.3259  -3.3187  -3.3186  -3.2758  -3.2758  -3.2528  -3.2527  -3.2165
    -3.2163  -3.1899  -3.1822  -3.1688  -3.1688  -3.1226  -3.1225  -3.0900
    -3.0625  -3.0620  -3.0614  -3.0608  -3.0569  -3.0569  -3.0292  -3.0206
    -2.9815  -2.9815  -2.9604  -2.9368  -2.9338  -2.9337  -2.9273  -2.9270
    -2.9228  -2.9228  -2.8877  -2.8866  -2.8866  -2.8812  -2.8812  -2.8762
    -2.8210  -2.8151  -2.8111  -2.8110  -2.7889  -2.7888  -2.7836  -2.6949
    -2.6843  -2.6842  -2.6747  -2.6745  -2.6686  -2.6673  -2.6663  -2.6586
    -2.6585  -2.6479  -2.6405  -2.6374  -2.6372  -2.6327  -2.6228  -2.6173
    -2.6154  -2.5932  -2.5826  -2.5824  -2.5666  -2.5666  -2.5495  -2.5495
    -2.5408  -2.5406  -2.5200  -2.5074  -2.5074  -2.5020  -2.5019  -2.4681
    -2.4657  -2.4656  -2.4074  -2.4042  -2.3893  -2.3892  -2.3787  -2.3742
    -2.3510  -2.3509  -2.3468  -2.3341  -2.3339  -2.3224  -2.3221  -2.3055
    -2.3052  -2.2783  -2.2783  -2.2681  -2.2680  -2.2582  -2.2581  -2.2409
    -2.2279  -2.2072  -2.1383  -2.1369  -2.1176  -2.1174  -2.1056  -2.1056
    -2.0556  -2.0553  -2.0402  -2.0206  -2.0081  -2.0081  -1.9899  -1.9716
    -1.9715  -1.9583  -1.9515  -1.9194  -1.9190  -1.9177  -1.9108  -1.9107
    -1.9030  -1.9028  -1.8823  -1.8760  -1.8655  -1.8654  -1.8649  -1.8648
    -1.8638  -1.8634  -1.8497  -1.8297  -1.8296  -1.8263  -1.8208  -1.8080
    -1.8078  -1.8035  -1.8034  -1.7977  -1.7957  -1.7615  -1.7613  -1.7166
    -1.6975  -1.6973  -1.6517  -1.6516  -1.6514  -1.6407  -1.6405  -1.6268
    -1.6266  -1.6192  -1.6190  -1.6087  -1.6084  -1.5882  -1.5881  -1.5512
    -1.5510  -1.5336  -1.5114  -1.5112  -1.4718  -1.4717  -1.4213  -1.4213
    -1.4002  -1.3756  -1.3743  -1.3738  -1.3681  -1.3674  -1.3476  -1.3474
    -1.3465  -1.3464  -1.3445  -1.3442  -1.3436  -1.3424  -1.3409  -1.3142
    -1.3141  -1.2812  -1.2798  -1.2798  -1.2582  -1.2581  -1.2532  -1.2530
    -1.2499  -1.2395  -1.2117  -1.2116  -1.1872  -1.1861  -1.1855  -1.1656
    -1.1543  -1.1541  -1.1405  -1.1250  -1.1248  -1.1179  -1.1178  -1.0794
    -1.0791  -1.0674  -1.0672  -1.0664  -1.0662  -1.0401  -1.0400  -1.0258
    -1.0186  -1.0184  -1.0066  -1.0063  -1.0048  -1.0046  -0.9936  -0.9835
    -0.9825  -0.9759  -0.9759  -0.9690  -0.9649  -0.9647  -0.9486  -0.9070
    -0.9060  -0.9042  -0.9020  -0.8991  -0.8990  -0.8697  -0.8697  -0.8559
    -0.8384  -0.8380  -0.8298  -0.8297  -0.8215  -0.8143  -0.8130  -0.7766
    -0.7764  -0.7651  -0.7651  -0.7448  -0.7447  -0.7293  -0.7051  -0.6970
    -0.6793  -0.6792  -0.6415  -0.6414  -0.6384  -0.6383  -0.6374  -0.6314
    -0.6304  -0.6303  -0.6264  -0.6237  -0.5906  -0.5905  -0.5890  -0.5888
    -0.5880  -0.5876  -0.5737  -0.5735  -0.5452  -0.2828  -0.2769  -0.2311
    -0.2303  -0.1996  -0.1411   0.0115   0.0117   0.0423   0.3270   0.3271
     0.6677   0.6685   0.7116   0.7116   0.7615   0.7619   0.9211   0.9215
     1.0496   1.0507   1.1648   1.6601   1.7027   1.7058   1.7431   1.7434
     1.8804   1.8822   1.9367   1.9371   2.1193   2.1195   2.4048   2.4310
     2.4321   2.4524   2.8872   2.8887   2.9101   2.9119   2.9273   2.9276
     2.9931   2.9937   3.1518   3.2716   3.2724   3.4563   3.4671   3.5681
     3.6400   3.6403   3.9399   3.9405   3.9971   3.9983   3.9985   4.1451
     4.1457   4.1667   4.1687   4.4408   4.4428   4.4792   4.4793   4.5926
     4.5981   4.6601   4.6617   4.9422   5.0387   5.5423   5.5431   5.6211
     5.6246   5.7497   5.7502   5.8219   5.8221   5.8324   5.8386   5.8389
     5.9361   5.9509   5.9840   6.1265   6.2379   6.2388   6.2495   6.2502
     6.2555   6.2651   6.2749   6.3267   6.4265   6.4287   6.4983   6.5558

          k =-0.2500 0.2500-0.0833 (167653 PWs)   bands (ev):

   -19.1732  -6.9864  -6.7931  -6.2628  -6.2627  -5.8246  -5.4211  -5.3224
    -5.3222  -5.1006  -5.1006  -5.0037  -5.0034  -4.8701  -4.8625  -4.7530
    -4.6645  -4.6605  -4.6393  -4.6392  -4.4582  -4.4570  -4.4568  -4.4301
    -4.4261  -4.4256  -4.4220  -4.3685  -4.3682  -4.3657  -4.3655  -4.3019
    -4.2734  -4.2734  -4.2168  -4.2134  -4.2122  -4.1762  -4.1759  -4.1620
    -4.1577  -4.1389  -4.1389  -4.1014  -4.0692  -4.0689  -4.0666  -4.0636
    -4.0633  -4.0331  -4.0027  -4.0025  -3.9732  -3.9730  -3.9691  -3.9690
    -3.9669  -3.9610  -3.9288  -3.9285  -3.8685  -3.8683  -3.8362  -3.8096
    -3.8030  -3.7995  -3.7992  -3.7769  -3.7769  -3.7650  -3.7146  -3.7146
    -3.7087  -3.7085  -3.6233  -3.6231  -3.6010  -3.6008  -3.5664  -3.5632
    -3.5513  -3.5251  -3.5251  -3.4808  -3.4806  -3.4782  -3.4780  -3.4534
    -3.4532  -3.3729  -3.3726  -3.3709  -3.3574  -3.3415  -3.3389  -3.3260
    -3.3259  -3.3187  -3.3186  -3.2758  -3.2758  -3.2528  -3.2527  -3.2165
    -3.2163  -3.1899  -3.1822  -3.1688  -3.1688  -3.1227  -3.1225  -3.0900
    -3.0624  -3.0621  -3.0613  -3.0609  -3.0569  -3.0569  -3.0292  -3.0206
    -2.9815  -2.9815  -2.9604  -2.9368  -2.9339  -2.9337  -2.9273  -2.9270
    -2.9228  -2.9228  -2.8877  -2.8866  -2.8866  -2.8812  -2.8812  -2.8762
    -2.8210  -2.8151  -2.8111  -2.8109  -2.7889  -2.7888  -2.7836  -2.6949
    -2.6843  -2.6842  -2.6747  -2.6745  -2.6686  -2.6674  -2.6663  -2.6586
    -2.6585  -2.6479  -2.6405  -2.6374  -2.6372  -2.6327  -2.6228  -2.6173
    -2.6154  -2.5932  -2.5826  -2.5823  -2.5666  -2.5665  -2.5495  -2.5495
    -2.5408  -2.5406  -2.5200  -2.5074  -2.5074  -2.5020  -2.5019  -2.4681
    -2.4657  -2.4656  -2.4074  -2.4042  -2.3893  -2.3892  -2.3787  -2.3742
    -2.3510  -2.3509  -2.3468  -2.3341  -2.3339  -2.3224  -2.3221  -2.3055
    -2.3052  -2.2783  -2.2783  -2.2681  -2.2680  -2.2582  -2.2581  -2.2409
    -2.2279  -2.2072  -2.1383  -2.1369  -2.1176  -2.1174  -2.1056  -2.1055
    -2.0556  -2.0552  -2.0402  -2.0206  -2.0081  -2.0081  -1.9899  -1.9716
    -1.9715  -1.9583  -1.9515  -1.9194  -1.9190  -1.9177  -1.9107  -1.9107
    -1.9030  -1.9028  -1.8823  -1.8760  -1.8655  -1.8654  -1.8649  -1.8648
    -1.8638  -1.8634  -1.8497  -1.8297  -1.8296  -1.8263  -1.8208  -1.8080
    -1.8078  -1.8035  -1.8034  -1.7977  -1.7957  -1.7616  -1.7613  -1.7166
    -1.6976  -1.6973  -1.6517  -1.6516  -1.6514  -1.6407  -1.6405  -1.6269
    -1.6265  -1.6192  -1.6190  -1.6087  -1.6084  -1.5882  -1.5881  -1.5512
    -1.5510  -1.5336  -1.5114  -1.5112  -1.4718  -1.4717  -1.4213  -1.4213
    -1.4002  -1.3756  -1.3744  -1.3738  -1.3681  -1.3674  -1.3476  -1.3473
    -1.3465  -1.3464  -1.3444  -1.3444  -1.3436  -1.3424  -1.3410  -1.3142
    -1.3141  -1.2812  -1.2798  -1.2798  -1.2582  -1.2581  -1.2532  -1.2530
    -1.2499  -1.2395  -1.2117  -1.2115  -1.1872  -1.1861  -1.1855  -1.1656
    -1.1543  -1.1541  -1.1405  -1.1250  -1.1248  -1.1179  -1.1178  -1.0794
    -1.0791  -1.0674  -1.0672  -1.0664  -1.0662  -1.0401  -1.0400  -1.0258
    -1.0186  -1.0184  -1.0066  -1.0063  -1.0048  -1.0046  -0.9936  -0.9835
    -0.9825  -0.9759  -0.9759  -0.9690  -0.9649  -0.9647  -0.9486  -0.9070
    -0.9060  -0.9042  -0.9020  -0.8991  -0.8990  -0.8697  -0.8697  -0.8559
    -0.8384  -0.8380  -0.8298  -0.8297  -0.8215  -0.8143  -0.8130  -0.7766
    -0.7764  -0.7651  -0.7651  -0.7448  -0.7447  -0.7293  -0.7051  -0.6970
    -0.6793  -0.6791  -0.6415  -0.6413  -0.6384  -0.6383  -0.6374  -0.6314
    -0.6304  -0.6303  -0.6264  -0.6237  -0.5906  -0.5905  -0.5890  -0.5888
    -0.5880  -0.5876  -0.5737  -0.5735  -0.5452  -0.2828  -0.2769  -0.2312
    -0.2303  -0.1996  -0.1411   0.0115   0.0117   0.0423   0.3270   0.3271
     0.6676   0.6685   0.7116   0.7116   0.7614   0.7619   0.9211   0.9215
     1.0496   1.0507   1.1648   1.6601   1.7027   1.7058   1.7431   1.7434
     1.8803   1.8823   1.9367   1.9371   2.1193   2.1195   2.4048   2.4310
     2.4321   2.4524   2.8871   2.8888   2.9101   2.9119   2.9273   2.9276
     2.9931   2.9937   3.1518   3.2715   3.2725   3.4563   3.4671   3.5681
     3.6400   3.6403   3.9399   3.9406   3.9971   3.9983   3.9985   4.1451
     4.1457   4.1665   4.1689   4.4408   4.4428   4.4792   4.4793   4.5926
     4.5981   4.6600   4.6618   4.9418   5.0390   5.5423   5.5432   5.6207
     5.6250   5.7496   5.7502   5.8219   5.8221   5.8352   5.8386   5.8389
     5.9368   5.9509   5.9894   6.1115   6.2378   6.2389   6.2495   6.2502
     6.2555   6.2650   6.2759   6.3208   6.4268   6.4287   6.5019   6.5548

          k = 0.2500-0.2500-0.0833 (167653 PWs)   bands (ev):

   -19.1732  -6.9864  -6.7931  -6.2628  -6.2627  -5.8246  -5.4211  -5.3224
    -5.3222  -5.1006  -5.1006  -5.0037  -5.0034  -4.8701  -4.8625  -4.7530
    -4.6645  -4.6605  -4.6393  -4.6392  -4.4582  -4.4570  -4.4568  -4.4301
    -4.4261  -4.4256  -4.4220  -4.3685  -4.3682  -4.3657  -4.3655  -4.3019
    -4.2734  -4.2734  -4.2168  -4.2134  -4.2122  -4.1762  -4.1759  -4.1620
    -4.1577  -4.1389  -4.1389  -4.1014  -4.0692  -4.0689  -4.0666  -4.0636
    -4.0633  -4.0331  -4.0027  -4.0025  -3.9732  -3.9730  -3.9691  -3.9690
    -3.9669  -3.9610  -3.9288  -3.9285  -3.8685  -3.8683  -3.8362  -3.8096
    -3.8030  -3.7995  -3.7992  -3.7769  -3.7769  -3.7650  -3.7146  -3.7146
    -3.7087  -3.7085  -3.6233  -3.6231  -3.6010  -3.6008  -3.5664  -3.5632
    -3.5513  -3.5251  -3.5251  -3.4808  -3.4806  -3.4782  -3.4780  -3.4534
    -3.4532  -3.3729  -3.3726  -3.3709  -3.3574  -3.3415  -3.3389  -3.3260
    -3.3259  -3.3187  -3.3186  -3.2758  -3.2758  -3.2528  -3.2527  -3.2165
    -3.2163  -3.1899  -3.1822  -3.1688  -3.1688  -3.1227  -3.1225  -3.0900
    -3.0624  -3.0621  -3.0613  -3.0609  -3.0569  -3.0569  -3.0292  -3.0206
    -2.9815  -2.9815  -2.9604  -2.9368  -2.9339  -2.9337  -2.9273  -2.9270
    -2.9228  -2.9228  -2.8877  -2.8866  -2.8866  -2.8812  -2.8812  -2.8762
    -2.8210  -2.8151  -2.8111  -2.8109  -2.7889  -2.7888  -2.7836  -2.6949
    -2.6843  -2.6842  -2.6747  -2.6745  -2.6686  -2.6674  -2.6663  -2.6586
    -2.6585  -2.6479  -2.6405  -2.6374  -2.6372  -2.6327  -2.6228  -2.6173
    -2.6154  -2.5932  -2.5826  -2.5823  -2.5666  -2.5665  -2.5495  -2.5495
    -2.5408  -2.5406  -2.5200  -2.5074  -2.5074  -2.5020  -2.5019  -2.4681
    -2.4657  -2.4656  -2.4074  -2.4042  -2.3893  -2.3892  -2.3787  -2.3742
    -2.3510  -2.3509  -2.3468  -2.3341  -2.3339  -2.3224  -2.3221  -2.3055
    -2.3052  -2.2783  -2.2783  -2.2681  -2.2680  -2.2582  -2.2581  -2.2409
    -2.2279  -2.2072  -2.1383  -2.1369  -2.1176  -2.1174  -2.1056  -2.1055
    -2.0556  -2.0552  -2.0402  -2.0206  -2.0081  -2.0081  -1.9899  -1.9716
    -1.9715  -1.9583  -1.9515  -1.9194  -1.9190  -1.9177  -1.9107  -1.9107
    -1.9030  -1.9028  -1.8823  -1.8760  -1.8655  -1.8654  -1.8649  -1.8648
    -1.8638  -1.8634  -1.8497  -1.8297  -1.8296  -1.8263  -1.8208  -1.8080
    -1.8078  -1.8035  -1.8034  -1.7977  -1.7957  -1.7616  -1.7613  -1.7166
    -1.6976  -1.6973  -1.6517  -1.6516  -1.6514  -1.6407  -1.6405  -1.6269
    -1.6265  -1.6192  -1.6190  -1.6087  -1.6084  -1.5882  -1.5881  -1.5512
    -1.5510  -1.5336  -1.5114  -1.5112  -1.4718  -1.4717  -1.4213  -1.4213
    -1.4002  -1.3756  -1.3744  -1.3738  -1.3681  -1.3674  -1.3476  -1.3473
    -1.3465  -1.3464  -1.3444  -1.3444  -1.3436  -1.3424  -1.3410  -1.3142
    -1.3141  -1.2812  -1.2798  -1.2798  -1.2582  -1.2581  -1.2532  -1.2530
    -1.2499  -1.2395  -1.2117  -1.2115  -1.1872  -1.1861  -1.1855  -1.1656
    -1.1543  -1.1541  -1.1405  -1.1250  -1.1248  -1.1179  -1.1178  -1.0794
    -1.0791  -1.0674  -1.0672  -1.0664  -1.0662  -1.0401  -1.0400  -1.0258
    -1.0186  -1.0184  -1.0066  -1.0063  -1.0048  -1.0046  -0.9936  -0.9835
    -0.9825  -0.9759  -0.9759  -0.9690  -0.9649  -0.9647  -0.9486  -0.9070
    -0.9060  -0.9042  -0.9020  -0.8991  -0.8990  -0.8697  -0.8697  -0.8559
    -0.8384  -0.8380  -0.8298  -0.8297  -0.8215  -0.8143  -0.8130  -0.7766
    -0.7764  -0.7651  -0.7651  -0.7448  -0.7447  -0.7293  -0.7051  -0.6970
    -0.6793  -0.6791  -0.6415  -0.6413  -0.6384  -0.6383  -0.6374  -0.6314
    -0.6304  -0.6303  -0.6264  -0.6237  -0.5906  -0.5905  -0.5890  -0.5888
    -0.5880  -0.5876  -0.5737  -0.5735  -0.5452  -0.2828  -0.2769  -0.2312
    -0.2303  -0.1996  -0.1411   0.0115   0.0117   0.0423   0.3270   0.3271
     0.6676   0.6685   0.7116   0.7116   0.7614   0.7619   0.9211   0.9215
     1.0496   1.0507   1.1648   1.6601   1.7027   1.7058   1.7431   1.7434
     1.8803   1.8823   1.9367   1.9371   2.1193   2.1195   2.4048   2.4310
     2.4321   2.4524   2.8871   2.8888   2.9101   2.9119   2.9273   2.9276
     2.9931   2.9937   3.1518   3.2715   3.2725   3.4563   3.4671   3.5681
     3.6400   3.6403   3.9399   3.9406   3.9971   3.9983   3.9985   4.1451
     4.1457   4.1665   4.1689   4.4408   4.4428   4.4792   4.4793   4.5926
     4.5981   4.6600   4.6618   4.9418   5.0390   5.5423   5.5432   5.6207
     5.6250   5.7496   5.7502   5.8219   5.8221   5.8358   5.8386   5.8389
     5.9366   5.9509   5.9880   6.1121   6.2378   6.2389   6.2495   6.2502
     6.2555   6.2650   6.2762   6.3206   6.4270   6.4287   6.5034   6.5548

          k =-0.2500 0.2500 0.2500 (167588 PWs)   bands (ev):

   -19.1732  -6.9864  -6.7931  -6.2628  -6.2627  -5.8246  -5.4211  -5.3224
    -5.3222  -5.1006  -5.1006  -5.0037  -5.0034  -4.8701  -4.8625  -4.7530
    -4.6645  -4.6605  -4.6393  -4.6392  -4.4582  -4.4570  -4.4568  -4.4301
    -4.4261  -4.4256  -4.4220  -4.3685  -4.3682  -4.3657  -4.3655  -4.3019
    -4.2734  -4.2734  -4.2168  -4.2134  -4.2122  -4.1762  -4.1759  -4.1620
    -4.1577  -4.1389  -4.1389  -4.1014  -4.0692  -4.0689  -4.0666  -4.0636
    -4.0634  -4.0331  -4.0027  -4.0025  -3.9732  -3.9730  -3.9691  -3.9690
    -3.9669  -3.9610  -3.9288  -3.9285  -3.8685  -3.8683  -3.8362  -3.8096
    -3.8030  -3.7995  -3.7991  -3.7769  -3.7768  -3.7650  -3.7146  -3.7146
    -3.7087  -3.7085  -3.6233  -3.6231  -3.6011  -3.6008  -3.5664  -3.5632
    -3.5513  -3.5251  -3.5251  -3.4808  -3.4806  -3.4782  -3.4780  -3.4534
    -3.4532  -3.3729  -3.3726  -3.3709  -3.3574  -3.3415  -3.3389  -3.3259
    -3.3259  -3.3187  -3.3186  -3.2758  -3.2758  -3.2528  -3.2527  -3.2165
    -3.2163  -3.1899  -3.1822  -3.1688  -3.1688  -3.1226  -3.1225  -3.0900
    -3.0624  -3.0621  -3.0613  -3.0609  -3.0569  -3.0569  -3.0292  -3.0206
    -2.9815  -2.9815  -2.9604  -2.9368  -2.9339  -2.9337  -2.9273  -2.9270
    -2.9228  -2.9228  -2.8877  -2.8866  -2.8866  -2.8812  -2.8811  -2.8762
    -2.8210  -2.8151  -2.8111  -2.8109  -2.7889  -2.7888  -2.7836  -2.6949
    -2.6843  -2.6842  -2.6747  -2.6745  -2.6686  -2.6674  -2.6663  -2.6586
    -2.6585  -2.6479  -2.6405  -2.6374  -2.6372  -2.6327  -2.6228  -2.6173
    -2.6154  -2.5932  -2.5826  -2.5823  -2.5666  -2.5665  -2.5495  -2.5495
    -2.5408  -2.5406  -2.5201  -2.5074  -2.5074  -2.5020  -2.5019  -2.4681
    -2.4657  -2.4656  -2.4074  -2.4043  -2.3893  -2.3892  -2.3787  -2.3742
    -2.3510  -2.3509  -2.3468  -2.3341  -2.3339  -2.3224  -2.3221  -2.3055
    -2.3052  -2.2783  -2.2783  -2.2681  -2.2680  -2.2582  -2.2581  -2.2409
    -2.2279  -2.2072  -2.1383  -2.1369  -2.1176  -2.1174  -2.1056  -2.1055
    -2.0556  -2.0552  -2.0402  -2.0206  -2.0081  -2.0081  -1.9899  -1.9716
    -1.9715  -1.9583  -1.9515  -1.9194  -1.9190  -1.9177  -1.9107  -1.9107
    -1.9030  -1.9028  -1.8823  -1.8760  -1.8655  -1.8654  -1.8649  -1.8648
    -1.8638  -1.8634  -1.8497  -1.8297  -1.8296  -1.8263  -1.8208  -1.8080
    -1.8078  -1.8035  -1.8034  -1.7977  -1.7957  -1.7615  -1.7613  -1.7166
    -1.6976  -1.6973  -1.6517  -1.6516  -1.6514  -1.6407  -1.6405  -1.6269
    -1.6265  -1.6192  -1.6190  -1.6087  -1.6084  -1.5882  -1.5881  -1.5512
    -1.5510  -1.5336  -1.5114  -1.5112  -1.4718  -1.4717  -1.4213  -1.4213
    -1.4002  -1.3756  -1.3744  -1.3738  -1.3681  -1.3674  -1.3476  -1.3473
    -1.3465  -1.3464  -1.3444  -1.3444  -1.3436  -1.3424  -1.3410  -1.3142
    -1.3141  -1.2812  -1.2798  -1.2798  -1.2582  -1.2581  -1.2532  -1.2530
    -1.2499  -1.2395  -1.2117  -1.2115  -1.1872  -1.1861  -1.1855  -1.1656
    -1.1543  -1.1541  -1.1405  -1.1250  -1.1248  -1.1179  -1.1178  -1.0794
    -1.0791  -1.0674  -1.0672  -1.0664  -1.0662  -1.0401  -1.0400  -1.0258
    -1.0186  -1.0184  -1.0066  -1.0063  -1.0048  -1.0046  -0.9936  -0.9835
    -0.9825  -0.9759  -0.9759  -0.9690  -0.9649  -0.9647  -0.9486  -0.9070
    -0.9060  -0.9042  -0.9020  -0.8991  -0.8990  -0.8697  -0.8697  -0.8559
    -0.8384  -0.8380  -0.8298  -0.8297  -0.8215  -0.8143  -0.8130  -0.7766
    -0.7764  -0.7651  -0.7651  -0.7448  -0.7447  -0.7293  -0.7051  -0.6970
    -0.6793  -0.6791  -0.6415  -0.6413  -0.6384  -0.6383  -0.6374  -0.6314
    -0.6304  -0.6303  -0.6264  -0.6237  -0.5906  -0.5905  -0.5890  -0.5888
    -0.5880  -0.5876  -0.5737  -0.5735  -0.5452  -0.2828  -0.2769  -0.2312
    -0.2303  -0.1996  -0.1411   0.0115   0.0117   0.0423   0.3270   0.3271
     0.6676   0.6685   0.7116   0.7116   0.7615   0.7619   0.9211   0.9215
     1.0496   1.0507   1.1648   1.6601   1.7027   1.7058   1.7431   1.7434
     1.8803   1.8823   1.9367   1.9371   2.1193   2.1195   2.4048   2.4310
     2.4321   2.4524   2.8871   2.8888   2.9101   2.9119   2.9273   2.9276
     2.9931   2.9937   3.1519   3.2715   3.2725   3.4563   3.4671   3.5681
     3.6400   3.6403   3.9399   3.9406   3.9971   3.9983   3.9985   4.1451
     4.1457   4.1665   4.1690   4.4408   4.4428   4.4792   4.4793   4.5926
     4.5981   4.6600   4.6618   4.9424   5.0354   5.5423   5.5432   5.6210
     5.6249   5.7496   5.7502   5.8137   5.8221   5.8222   5.8386   5.8389
     5.9385   5.9509   6.0399   6.1083   6.2378   6.2389   6.2495   6.2502
     6.2555   6.2651   6.2945   6.3813   6.4272   6.4320   6.5071   6.5511

     the Fermi energy is     0.9931 ev

!    total energy              =   -7379.97826258 Ry
     Harris-Foulkes estimate   =   -7379.97826258 Ry
     estimated scf accuracy    <          3.7E-09 Ry

     The total energy is the sum of the following terms:

     one-electron contribution =  -48117.24784585 Ry
     hartree contribution      =   24609.42388870 Ry
     xc contribution           =   -3556.23805806 Ry
     ewald contribution        =   19684.08271451 Ry
     smearing contrib. (-TS)   =       0.00103813 Ry

     convergence has been achieved in  28 iterations

     Writing output data file 7182879.save

     init_run     :    117.90s CPU    134.83s WALL (       1 calls)
     electrons    :   7774.92s CPU   8629.31s WALL (       1 calls)

     Called by init_run:
     wfcinit      :     84.38s CPU     94.08s WALL (       1 calls)
     potinit      :      3.28s CPU      4.53s WALL (       1 calls)

     Called by electrons:
     c_bands      :   5933.09s CPU   6675.33s WALL (      29 calls)
     sum_band     :   1230.76s CPU   1320.23s WALL (      29 calls)
     v_of_rho     :     20.78s CPU     27.98s WALL (      29 calls)
     newd         :    603.61s CPU    614.51s WALL (      29 calls)
     mix_rho      :      4.20s CPU      8.66s WALL (      29 calls)

     Called by c_bands:
     init_us_2    :      9.21s CPU     11.16s WALL (     354 calls)
     cegterg      :   5874.75s CPU   6605.19s WALL (     174 calls)

     Called by *egterg:
     h_psi        :   2524.11s CPU   2847.91s WALL (    1039 calls)
     s_psi        :    363.43s CPU    403.51s WALL (    1039 calls)
     g_psi        :      4.49s CPU      4.49s WALL (     859 calls)
     cdiaghg      :   1856.97s CPU   1864.04s WALL (    1027 calls)

     Called by h_psi:
     add_vuspsi   :    368.89s CPU    430.77s WALL (    1039 calls)

     General routines
     calbec       :    531.69s CPU    533.73s WALL (    1213 calls)
     fft          :    336.07s CPU    360.49s WALL (     464 calls)
     ffts         :      2.11s CPU      2.37s WALL (      58 calls)
     fftw         :   2137.27s CPU   2436.75s WALL (  458416 calls)
     interpolate  :      5.39s CPU     11.81s WALL (      58 calls)
     davcio       :      0.00s CPU      0.12s WALL (       6 calls)

     Parallel routines
     fft_scatter  :   1883.71s CPU   2147.57s WALL (  458938 calls)

     PWSCF        :     2h11m CPU        2h26m WALL


   This run was terminated on:   3: 4:43   9Aug2015            

=------------------------------------------------------------------------------=
   JOB DONE.
=------------------------------------------------------------------------------=
