
     Program PWSCF v.5.1.2 starts on  8Aug2015 at 23:40:29 

     This program is part of the open-source Quantum ESPRESSO suite
     for quantum simulation of materials; please cite
         "P. Giannozzi et al., J. Phys.:Condens. Matter 21 395502 (2009);
          URL http://www.quantum-espresso.org", 
     in publications or presentations arising from this work. More details at
     http://www.quantum-espresso.org/quote

     Parallel version (MPI), running on    32 processors
     R & G space division:  proc/nbgrp/npool/nimage =      32
     Reading input from top.O1.Au62.d.2.6.phi.45.psi.0.in
Warning: card &IONS ignored
Warning: card / ignored
Warning: card &CELL ignored
Warning: card / ignored

     Current dimensions of program PWSCF are:
     Max number of different atomic species (ntypx) = 10
     Max number of k-points (npk) =  40000
     Max angular momentum in pseudopotentials (lmaxx) =  3

     Subspace diagonalization in iterative solution of the eigenvalue problem:
     a serial algorithm will be used


     Parallelization info
     --------------------
     sticks:   dense  smooth     PW     G-vecs:    dense   smooth      PW
     Min         578     289     74               118518    41891    5486
     Max         579     290     75               118533    41932    5497
     Sum       18505    9265   2385              3792731  1341081  175711


     Title: 
     top.O1.Au62.d.2.6.phi.45.psi.0                                             


     bravais-lattice index     =            8
     lattice parameter (alat)  =      24.1233  a.u.
     unit-cell volume          =   28076.2361 (a.u.)^3
     number of atoms/cell      =           75
     number of atomic types    =            3
     number of electrons       =       800.00
     number of Kohn-Sham states=          480
     kinetic-energy cutoff     =      50.0000  Ry
     charge density cutoff     =     400.0000  Ry
     convergence threshold     =      1.0E-08
     mixing beta               =       0.7000
     number of iterations used =            8  plain     mixing
     Exchange-correlation      =  SLA  PW   PBE  PBE ( 1  4  3  4 0 0)

     celldm(1)=  24.123277  celldm(2)=   1.000000  celldm(3)=   2.000000
     celldm(4)=   0.000000  celldm(5)=   0.000000  celldm(6)=   0.000000

     crystal axes: (cart. coord. in units of alat)
               a(1) = (   1.000000   0.000000   0.000000 )  
               a(2) = (   0.000000   1.000000   0.000000 )  
               a(3) = (   0.000000   0.000000   2.000000 )  

     reciprocal axes: (cart. coord. in units 2 pi/alat)
               b(1) = (  1.000000  0.000000  0.000000 )  
               b(2) = (  0.000000  1.000000  0.000000 )  
               b(3) = (  0.000000  0.000000  0.500000 )  


     PseudoPot. # 1 for Au read from file:
     /home/scc/andrejb/qe/pseudo/Au.pbe-nd-van.UPF
     MD5 check sum: 458681b50f36d87ef23c61b04bba420a
     Pseudo is Ultrasoft + core correction, Zval = 11.0
     Generated by new atomic code, or converted to UPF format
     Using radial grid of  985 points,  3 beta functions with: 
                l(1) =   1
                l(2) =   2
                l(3) =   2
     Q(r) pseudized with  8 coefficients,  rinner =    1.100   1.100   1.100
                                                       1.100   1.100

     PseudoPot. # 2 for H  read from file:
     /home/scc/andrejb/qe/pseudo/H.pbe-van_ak.UPF
     MD5 check sum: 403db7282739603aa925980fa9b8608d
     Pseudo is Ultrasoft, Zval =  1.0
     Generated by new atomic code, or converted to UPF format
     Using radial grid of  615 points,  1 beta functions with: 
                l(1) =   0
     Q(r) pseudized with  8 coefficients,  rinner =    0.800

     PseudoPot. # 3 for O  read from file:
     /home/scc/andrejb/qe/pseudo/O.pbe-van_ak.UPF
     MD5 check sum: 4b8c549914a63cae506c6ff22b5af4fe
     Pseudo is Ultrasoft, Zval =  6.0
     Generated by new atomic code, or converted to UPF format
     Using radial grid of  737 points,  4 beta functions with: 
                l(1) =   0
                l(2) =   0
                l(3) =   1
                l(4) =   1
     Q(r) pseudized with  8 coefficients,  rinner =    0.800   0.800   0.800


     atomic species   valence    mass     pseudopotential
        Au            11.00   196.96657     Au( 1.00)
        H              1.00     1.01000     H ( 1.00)
        O              6.00    16.00000     O ( 1.00)

     No symmetry found



   Cartesian axes

     site n.     atom                  positions (alat units)
         1           O   tau(   1) = (   0.4998324   0.3332216   0.7029927  )
         2           H   tau(   2) = (   0.4942419   0.2722342   0.7484866  )
         3           H   tau(   3) = (   0.5052408   0.3923724   0.7508503  )
         4           Au  tau(   4) = (   0.0000000   0.0000000   0.0000000  )
         5           Au  tau(   5) = (   0.3332217   0.0000000   0.0000000  )
         6           Au  tau(   6) = (   0.6664434   0.0000000   0.0000000  )
         7           Au  tau(   7) = (   0.1666109   0.1666109   0.0000000  )
         8           Au  tau(   8) = (   0.4998326   0.1666109   0.0000000  )
         9           Au  tau(   9) = (   0.8330542   0.1666109   0.0000000  )
        10           Au  tau(  10) = (   0.0000000   0.3332217   0.0000000  )
        11           Au  tau(  11) = (   0.3332217   0.3332217   0.0000000  )
        12           Au  tau(  12) = (   0.6664434   0.3332217   0.0000000  )
        13           Au  tau(  13) = (   0.1666109   0.4998326   0.0000000  )
        14           Au  tau(  14) = (   0.4998326   0.4998326   0.0000000  )
        15           Au  tau(  15) = (   0.8330542   0.4998326   0.0000000  )
        16           Au  tau(  16) = (   0.0000000   0.6664434   0.0000000  )
        17           Au  tau(  17) = (   0.3332217   0.6664434   0.0000000  )
        18           Au  tau(  18) = (   0.6664434   0.6664434   0.0000000  )
        19           Au  tau(  19) = (   0.1666109   0.8330542   0.0000000  )
        20           Au  tau(  20) = (   0.4998326   0.8330542   0.0000000  )
        21           Au  tau(  21) = (   0.8330542   0.8330542   0.0000000  )
        22           Au  tau(  22) = (   0.1666109   0.0000000   0.1666109  )
        23           Au  tau(  23) = (   0.4998326   0.0000000   0.1666109  )
        24           Au  tau(  24) = (   0.8330542   0.0000000   0.1666109  )
        25           Au  tau(  25) = (   0.0000000   0.1666109   0.1666109  )
        26           Au  tau(  26) = (   0.3332217   0.1666109   0.1666109  )
        27           Au  tau(  27) = (   0.6664434   0.1666109   0.1666109  )
        28           Au  tau(  28) = (   0.1666109   0.3332217   0.1666109  )
        29           Au  tau(  29) = (   0.4998326   0.3332217   0.1666109  )
        30           Au  tau(  30) = (   0.8330542   0.3332217   0.1666109  )
        31           Au  tau(  31) = (   0.0000000   0.4998326   0.1666109  )
        32           Au  tau(  32) = (   0.3332217   0.4998326   0.1666109  )
        33           Au  tau(  33) = (   0.6664434   0.4998326   0.1666109  )
        34           Au  tau(  34) = (   0.1666109   0.6664434   0.1666109  )
        35           Au  tau(  35) = (   0.4998326   0.6664434   0.1666109  )
        36           Au  tau(  36) = (   0.8330542   0.6664434   0.1666109  )
        37           Au  tau(  37) = (   0.0000000   0.8330542   0.1666109  )
        38           Au  tau(  38) = (   0.3332217   0.8330542   0.1666109  )
        39           Au  tau(  39) = (   0.6664434   0.8330542   0.1666109  )
        40           Au  tau(  40) = (  -0.0000182  -0.0000182   0.3335478  )
        41           Au  tau(  41) = (   0.3332215  -0.0000181   0.3335473  )
        42           Au  tau(  42) = (   0.6664447  -0.0000183   0.3335481  )
        43           Au  tau(  43) = (  -0.0000181   0.3332215   0.3335473  )
        44           Au  tau(  44) = (   0.3332215   0.3332215   0.3335468  )
        45           Au  tau(  45) = (   0.6664445   0.3332215   0.3335477  )
        46           Au  tau(  46) = (  -0.0000183   0.6664447   0.3335481  )
        47           Au  tau(  47) = (   0.3332215   0.6664445   0.3335477  )
        48           Au  tau(  48) = (   0.6664446   0.6664446   0.3335486  )
        49           Au  tau(  49) = (   0.1666097   0.1666097   0.3335483  )
        50           Au  tau(  50) = (   0.4998320   0.1666098   0.3335477  )
        51           Au  tau(  51) = (   0.8330732   0.1666096   0.3335480  )
        52           Au  tau(  52) = (   0.1666098   0.4998320   0.3335477  )
        53           Au  tau(  53) = (   0.4998322   0.4998322   0.3335470  )
        54           Au  tau(  54) = (   0.8330731   0.4998322   0.3335474  )
        55           Au  tau(  55) = (   0.1666096   0.8330732   0.3335480  )
        56           Au  tau(  56) = (   0.4998322   0.8330731   0.3335474  )
        57           Au  tau(  57) = (   0.8330731   0.8330731   0.3335478  )
        58           Au  tau(  58) = (   0.1666104  -0.0000111   0.4993095  )
        59           Au  tau(  59) = (   0.4998323  -0.0000112   0.4993099  )
        60           Au  tau(  60) = (   0.8330660  -0.0000111   0.4993009  )
        61           Au  tau(  61) = (  -0.0000111   0.1666104   0.4993095  )
        62           Au  tau(  62) = (   0.3332213   0.1666106   0.4993185  )
        63           Au  tau(  63) = (   0.6664437   0.1666106   0.4993187  )
        64           Au  tau(  64) = (   0.1666106   0.3332213   0.4993185  )
        65           Au  tau(  65) = (   0.4998324   0.3332216   0.4993185  )
        66           Au  tau(  66) = (   0.8330658   0.3332215   0.4993102  )
        67           Au  tau(  67) = (  -0.0000112   0.4998323   0.4993099  )
        68           Au  tau(  68) = (   0.3332216   0.4998324   0.4993185  )
        69           Au  tau(  69) = (   0.6664437   0.4998325   0.4993187  )
        70           Au  tau(  70) = (   0.1666106   0.6664437   0.4993187  )
        71           Au  tau(  71) = (   0.4998325   0.6664437   0.4993187  )
        72           Au  tau(  72) = (   0.8330658   0.6664438   0.4993102  )
        73           Au  tau(  73) = (  -0.0000111   0.8330660   0.4993009  )
        74           Au  tau(  74) = (   0.3332215   0.8330658   0.4993102  )
        75           Au  tau(  75) = (   0.6664438   0.8330658   0.4993102  )

     number of k points=     6  Marzari-Vanderbilt smearing, width (Ry)=  0.0200
                       cart. coord. in units 2pi/alat
        k(    1) = (   0.2500000   0.2500000   0.0833333), wk =   0.3333333
        k(    2) = (   0.2500000   0.2500000  -0.2500000), wk =   0.3333333
        k(    3) = (  -0.2500000  -0.2500000   0.0833333), wk =   0.3333333
        k(    4) = (  -0.2500000   0.2500000  -0.0833333), wk =   0.3333333
        k(    5) = (   0.2500000  -0.2500000  -0.0833333), wk =   0.3333333
        k(    6) = (  -0.2500000   0.2500000   0.2500000), wk =   0.3333333

     Dense  grid:  3792731 G-vectors     FFT dimensions: ( 160, 160, 320)

     Smooth grid:  1341081 G-vectors     FFT dimensions: ( 120, 120, 225)

     Largest allocated arrays     est. size (Mb)     dimensions
        Kohn-Sham Wavefunctions        38.58 Mb     (    5267,  480)
        NL pseudopotentials            76.03 Mb     (    5267,  946)
        Each V/rho on FFT grid          3.91 Mb     (  256000)
        Each G-vector array             0.90 Mb     (  118520)
        G-vector shells                 0.08 Mb     (   10286)
     Largest temporary arrays     est. size (Mb)     dimensions
        Auxiliary wavefunctions       154.31 Mb     (    5267, 1920)
        Each subspace H/S matrix       56.25 Mb     (    1920, 1920)
        Each <psi_i|beta_j> matrix      6.93 Mb     (     946,  480)
        Arrays for rho mixing          31.25 Mb     (  256000,    8)

     Initial potential from superposition of free atoms
     Check: negative starting charge=   -1.945117

     starting charge  799.16392, renormalised to  800.00000

     negative rho (up, down):  1.947E+00 0.000E+00
     Starting wfc are  654 randomized atomic wfcs

     total cpu time spent up to now is      121.5 secs

     Self-consistent Calculation

     iteration #  1     ecut=    50.00 Ry     beta=0.70
     Davidson diagonalization with overlap
     ethr =  1.00E-02,  avg # of iterations =  3.0

     Threshold (ethr) on eigenvalues was too large:
     Diagonalizing with lowered threshold

     Davidson diagonalization with overlap
     ethr =  5.01E-04,  avg # of iterations =  2.0

     negative rho (up, down):  1.932E+00 0.000E+00

     total cpu time spent up to now is      581.9 secs

     total energy              =   -7377.39272521 Ry
     Harris-Foulkes estimate   =   -7380.96623689 Ry
     estimated scf accuracy    <       4.53613070 Ry

     iteration #  2     ecut=    50.00 Ry     beta=0.70
     Davidson diagonalization with overlap
     ethr =  5.67E-04,  avg # of iterations = 11.0

     negative rho (up, down):  1.929E+00 0.000E+00

     total cpu time spent up to now is     1310.2 secs

     total energy              =   -7368.22768301 Ry
     Harris-Foulkes estimate   =   -7388.14884254 Ry
     estimated scf accuracy    <     104.59214180 Ry

     iteration #  3     ecut=    50.00 Ry     beta=0.70
     Davidson diagonalization with overlap
     ethr =  5.67E-04,  avg # of iterations =  6.0

     negative rho (up, down):  1.947E+00 0.000E+00

     total cpu time spent up to now is     1788.9 secs

     total energy              =   -7379.19746344 Ry
     Harris-Foulkes estimate   =   -7380.66552022 Ry
     estimated scf accuracy    <       5.27643097 Ry

     iteration #  4     ecut=    50.00 Ry     beta=0.70
     Davidson diagonalization with overlap
     ethr =  5.67E-04,  avg # of iterations =  7.0

     negative rho (up, down):  1.951E+00 0.000E+00

     total cpu time spent up to now is     2090.6 secs

     total energy              =   -7379.25181125 Ry
     Harris-Foulkes estimate   =   -7380.58665412 Ry
     estimated scf accuracy    <      11.29501159 Ry

     iteration #  5     ecut=    50.00 Ry     beta=0.70
     Davidson diagonalization with overlap
     ethr =  5.67E-04,  avg # of iterations =  6.0

     negative rho (up, down):  1.962E+00 0.000E+00

     total cpu time spent up to now is     2373.7 secs

     total energy              =   -7379.93296116 Ry
     Harris-Foulkes estimate   =   -7380.06132106 Ry
     estimated scf accuracy    <       0.64247031 Ry

     iteration #  6     ecut=    50.00 Ry     beta=0.70
     Davidson diagonalization with overlap
     ethr =  8.03E-05,  avg # of iterations =  7.5

     negative rho (up, down):  1.965E+00 0.000E+00

     total cpu time spent up to now is     2675.3 secs

     total energy              =   -7379.96670338 Ry
     Harris-Foulkes estimate   =   -7379.99702708 Ry
     estimated scf accuracy    <       0.10371480 Ry

     iteration #  7     ecut=    50.00 Ry     beta=0.70
     Davidson diagonalization with overlap
     ethr =  1.30E-05,  avg # of iterations = 11.7

     negative rho (up, down):  1.967E+00 0.000E+00

     total cpu time spent up to now is     3060.2 secs

     total energy              =   -7379.96902334 Ry
     Harris-Foulkes estimate   =   -7379.99602249 Ry
     estimated scf accuracy    <       0.11700608 Ry

     iteration #  8     ecut=    50.00 Ry     beta=0.70
     Davidson diagonalization with overlap
     ethr =  1.30E-05,  avg # of iterations =  3.8

     negative rho (up, down):  1.969E+00 0.000E+00

     total cpu time spent up to now is     3322.9 secs

     total energy              =   -7379.97209370 Ry
     Harris-Foulkes estimate   =   -7379.99365455 Ry
     estimated scf accuracy    <       0.10154091 Ry

     iteration #  9     ecut=    50.00 Ry     beta=0.70
     Davidson diagonalization with overlap
     ethr =  1.27E-05,  avg # of iterations =  3.7

     negative rho (up, down):  1.970E+00 0.000E+00

     total cpu time spent up to now is     3581.0 secs

     total energy              =   -7379.98111861 Ry
     Harris-Foulkes estimate   =   -7379.98574134 Ry
     estimated scf accuracy    <       0.01620292 Ry

     iteration # 10     ecut=    50.00 Ry     beta=0.70
     Davidson diagonalization with overlap
     ethr =  2.03E-06,  avg # of iterations = 14.2

     negative rho (up, down):  1.970E+00 0.000E+00

     total cpu time spent up to now is     3991.4 secs

     total energy              =   -7379.98336338 Ry
     Harris-Foulkes estimate   =   -7379.98443698 Ry
     estimated scf accuracy    <       0.00320523 Ry

     iteration # 11     ecut=    50.00 Ry     beta=0.70
     Davidson diagonalization with overlap
     ethr =  4.01E-07,  avg # of iterations =  2.0

     negative rho (up, down):  1.970E+00 0.000E+00

     total cpu time spent up to now is     4233.1 secs

     total energy              =   -7379.98369662 Ry
     Harris-Foulkes estimate   =   -7379.98410774 Ry
     estimated scf accuracy    <       0.00117601 Ry

     iteration # 12     ecut=    50.00 Ry     beta=0.70
     Davidson diagonalization with overlap
     ethr =  1.47E-07,  avg # of iterations =  2.0

     negative rho (up, down):  1.970E+00 0.000E+00

     total cpu time spent up to now is     4472.4 secs

     total energy              =   -7379.98380630 Ry
     Harris-Foulkes estimate   =   -7379.98403876 Ry
     estimated scf accuracy    <       0.00112080 Ry

     iteration # 13     ecut=    50.00 Ry     beta=0.70
     Davidson diagonalization with overlap
     ethr =  1.40E-07,  avg # of iterations =  2.0

     negative rho (up, down):  1.970E+00 0.000E+00

     total cpu time spent up to now is     4707.2 secs

     total energy              =   -7379.98391379 Ry
     Harris-Foulkes estimate   =   -7379.98396268 Ry
     estimated scf accuracy    <       0.00017850 Ry

     iteration # 14     ecut=    50.00 Ry     beta=0.70
     Davidson diagonalization with overlap
     ethr =  2.23E-08,  avg # of iterations =  2.0

     negative rho (up, down):  1.970E+00 0.000E+00

     total cpu time spent up to now is     4952.6 secs

     total energy              =   -7379.98391626 Ry
     Harris-Foulkes estimate   =   -7379.98395692 Ry
     estimated scf accuracy    <       0.00015064 Ry

     iteration # 15     ecut=    50.00 Ry     beta=0.70
     Davidson diagonalization with overlap
     ethr =  1.88E-08,  avg # of iterations =  2.0

     negative rho (up, down):  1.970E+00 0.000E+00

     total cpu time spent up to now is     5182.8 secs

     total energy              =   -7379.98391240 Ry
     Harris-Foulkes estimate   =   -7379.98397112 Ry
     estimated scf accuracy    <       0.00047359 Ry

     iteration # 16     ecut=    50.00 Ry     beta=0.70
     Davidson diagonalization with overlap
     ethr =  1.88E-08,  avg # of iterations =  2.0

     negative rho (up, down):  1.970E+00 0.000E+00

     total cpu time spent up to now is     5423.4 secs

     total energy              =   -7379.98393752 Ry
     Harris-Foulkes estimate   =   -7379.98394755 Ry
     estimated scf accuracy    <       0.00003882 Ry

     iteration # 17     ecut=    50.00 Ry     beta=0.70
     Davidson diagonalization with overlap
     ethr =  4.85E-09,  avg # of iterations =  2.0

     negative rho (up, down):  1.970E+00 0.000E+00

     total cpu time spent up to now is     5667.2 secs

     total energy              =   -7379.98394185 Ry
     Harris-Foulkes estimate   =   -7379.98394365 Ry
     estimated scf accuracy    <       0.00000673 Ry

     iteration # 18     ecut=    50.00 Ry     beta=0.70
     Davidson diagonalization with overlap
     ethr =  8.42E-10,  avg # of iterations =  2.0

     negative rho (up, down):  1.970E+00 0.000E+00

     total cpu time spent up to now is     5911.2 secs

     total energy              =   -7379.98394263 Ry
     Harris-Foulkes estimate   =   -7379.98394322 Ry
     estimated scf accuracy    <       0.00000205 Ry

     iteration # 19     ecut=    50.00 Ry     beta=0.70
     Davidson diagonalization with overlap
     ethr =  2.56E-10,  avg # of iterations =  2.0

     negative rho (up, down):  1.970E+00 0.000E+00

     total cpu time spent up to now is     6150.8 secs

     total energy              =   -7379.98394273 Ry
     Harris-Foulkes estimate   =   -7379.98394323 Ry
     estimated scf accuracy    <       0.00000216 Ry

     iteration # 20     ecut=    50.00 Ry     beta=0.70
     Davidson diagonalization with overlap
     ethr =  2.56E-10,  avg # of iterations =  2.0

     negative rho (up, down):  1.970E+00 0.000E+00

     total cpu time spent up to now is     6393.3 secs

     total energy              =   -7379.98394293 Ry
     Harris-Foulkes estimate   =   -7379.98394306 Ry
     estimated scf accuracy    <       0.00000046 Ry

     iteration # 21     ecut=    50.00 Ry     beta=0.70
     Davidson diagonalization with overlap
     ethr =  5.69E-11,  avg # of iterations =  2.0

     negative rho (up, down):  1.970E+00 0.000E+00

     total cpu time spent up to now is     6644.1 secs

     total energy              =   -7379.98394296 Ry
     Harris-Foulkes estimate   =   -7379.98394302 Ry
     estimated scf accuracy    <       0.00000024 Ry

     iteration # 22     ecut=    50.00 Ry     beta=0.70
     Davidson diagonalization with overlap
     ethr =  2.94E-11,  avg # of iterations =  2.0

     negative rho (up, down):  1.971E+00 0.000E+00

     total cpu time spent up to now is     6880.2 secs

     total energy              =   -7379.98394298 Ry
     Harris-Foulkes estimate   =   -7379.98394301 Ry
     estimated scf accuracy    <       0.00000012 Ry

     iteration # 23     ecut=    50.00 Ry     beta=0.70
     Davidson diagonalization with overlap
     ethr =  1.55E-11,  avg # of iterations =  3.0

     negative rho (up, down):  1.971E+00 0.000E+00

     total cpu time spent up to now is     7131.8 secs

     total energy              =   -7379.98394298 Ry
     Harris-Foulkes estimate   =   -7379.98394300 Ry
     estimated scf accuracy    <       0.00000006 Ry

     iteration # 24     ecut=    50.00 Ry     beta=0.70
     Davidson diagonalization with overlap
     ethr =  7.24E-12,  avg # of iterations =  2.0

     negative rho (up, down):  1.971E+00 0.000E+00

     total cpu time spent up to now is     7376.0 secs

     total energy              =   -7379.98394298 Ry
     Harris-Foulkes estimate   =   -7379.98394299 Ry
     estimated scf accuracy    <       0.00000003 Ry

     iteration # 25     ecut=    50.00 Ry     beta=0.70
     Davidson diagonalization with overlap
     ethr =  3.88E-12,  avg # of iterations =  2.0

     negative rho (up, down):  1.971E+00 0.000E+00

     total cpu time spent up to now is     7627.5 secs

     End of self-consistent calculation

          k = 0.2500 0.2500 0.0833 (167653 PWs)   bands (ev):

   -20.1673  -7.9353  -6.7043  -6.1743  -6.1742  -5.7363  -5.3448  -5.2389
    -5.2337  -5.0269  -5.0108  -4.9784  -4.9161  -4.8301  -4.7725  -4.7500
    -4.6589  -4.5748  -4.5685  -4.5496  -4.5396  -4.3690  -4.3681  -4.3659
    -4.3384  -4.3364  -4.3322  -4.3312  -4.2804  -4.2769  -4.2755  -4.2637
    -4.2119  -4.1837  -4.1799  -4.1276  -4.1238  -4.1225  -4.0877  -4.0857
    -4.0723  -4.0676  -4.0490  -4.0470  -4.0124  -3.9799  -3.9789  -3.9758
    -3.9742  -3.9726  -3.9422  -3.9139  -3.9090  -3.8840  -3.8823  -3.8792
    -3.8791  -3.8728  -3.8712  -3.8412  -3.8381  -3.7799  -3.7733  -3.7466
    -3.7176  -3.7139  -3.7100  -3.7095  -3.6867  -3.6847  -3.6758  -3.6252
    -3.6231  -3.6198  -3.6184  -3.5350  -3.5313  -3.5126  -3.5094  -3.4775
    -3.4757  -3.4599  -3.4361  -3.4331  -3.3918  -3.3902  -3.3891  -3.3862
    -3.3650  -3.3637  -3.2857  -3.2834  -3.2817  -3.2660  -3.2545  -3.2504
    -3.2366  -3.2361  -3.2298  -3.2297  -3.1874  -3.1834  -3.1654  -3.1648
    -3.1288  -3.1275  -3.1016  -3.0814  -3.0794  -3.0337  -3.0332  -3.0005
    -2.9736  -2.9729  -2.9714  -2.9711  -2.9673  -2.9656  -2.9427  -2.9303
    -2.8930  -2.8920  -2.8703  -2.8467  -2.8445  -2.8422  -2.8391  -2.8361
    -2.8335  -2.8334  -2.7989  -2.7985  -2.7975  -2.7930  -2.7905  -2.7870
    -2.7322  -2.7272  -2.7227  -2.7209  -2.7004  -2.6999  -2.6953  -2.6048
    -2.5956  -2.5954  -2.5863  -2.5851  -2.5812  -2.5792  -2.5767  -2.5690
    -2.5685  -2.5605  -2.5516  -2.5503  -2.5435  -2.5429  -2.5347  -2.5325
    -2.5257  -2.5038  -2.4946  -2.4936  -2.4773  -2.4767  -2.4635  -2.4609
    -2.4518  -2.4504  -2.4307  -2.4294  -2.4190  -2.4173  -2.4106  -2.3828
    -2.3772  -2.3762  -2.3235  -2.3155  -2.3128  -2.2986  -2.2976  -2.2828
    -2.2798  -2.2625  -2.2602  -2.2566  -2.2465  -2.2362  -2.2346  -2.2211
    -2.2154  -2.2121  -2.1899  -2.1838  -2.1792  -2.1763  -2.1697  -2.1643
    -2.1436  -2.1287  -2.1128  -2.0508  -2.0419  -2.0285  -2.0269  -2.0172
    -2.0071  -1.9682  -1.9633  -1.9493  -1.9316  -1.9205  -1.9169  -1.9005
    -1.8830  -1.8800  -1.8695  -1.8604  -1.8347  -1.8327  -1.8280  -1.8214
    -1.8195  -1.8147  -1.8105  -1.7972  -1.7854  -1.7776  -1.7772  -1.7766
    -1.7756  -1.7742  -1.7693  -1.7600  -1.7410  -1.7388  -1.7368  -1.7303
    -1.7191  -1.7176  -1.7151  -1.7130  -1.7076  -1.7068  -1.6731  -1.6668
    -1.6259  -1.6100  -1.6057  -1.5636  -1.5627  -1.5625  -1.5523  -1.5512
    -1.5390  -1.5368  -1.5319  -1.5257  -1.5206  -1.5136  -1.4975  -1.4964
    -1.4628  -1.4582  -1.4437  -1.4235  -1.4196  -1.3832  -1.3824  -1.3331
    -1.3314  -1.3103  -1.2869  -1.2850  -1.2847  -1.2795  -1.2774  -1.2606
    -1.2597  -1.2591  -1.2587  -1.2577  -1.2563  -1.2559  -1.2495  -1.2389
    -1.2250  -1.2226  -1.1933  -1.1928  -1.1904  -1.1701  -1.1684  -1.1652
    -1.1640  -1.1616  -1.1451  -1.1233  -1.1199  -1.1003  -1.0986  -1.0850
    -1.0776  -1.0658  -1.0594  -1.0373  -1.0362  -1.0306  -1.0255  -0.9913
    -0.9898  -0.9795  -0.9780  -0.9774  -0.9692  -0.9514  -0.9509  -0.9380
    -0.9297  -0.9284  -0.9191  -0.9174  -0.9160  -0.9098  -0.9058  -0.8949
    -0.8927  -0.8867  -0.8860  -0.8809  -0.8754  -0.8642  -0.8605  -0.8179
    -0.8165  -0.8162  -0.8148  -0.8087  -0.8021  -0.7805  -0.7737  -0.7679
    -0.7507  -0.7465  -0.7404  -0.7368  -0.7323  -0.7233  -0.7153  -0.6894
    -0.6795  -0.6761  -0.6717  -0.6559  -0.6546  -0.6404  -0.6168  -0.6086
    -0.5907  -0.5893  -0.5532  -0.5524  -0.5514  -0.5480  -0.5430  -0.5418
    -0.5415  -0.5413  -0.5355  -0.5346  -0.5023  -0.5020  -0.5013  -0.5010
    -0.5003  -0.4870  -0.4848  -0.4640  -0.4565  -0.1974  -0.1860  -0.1471
    -0.1217  -0.1070  -0.0527   0.0996   0.1014   0.1412   0.4141   0.4241
     0.7508   0.7712   0.7997   0.8021   0.8478   0.8546   1.0051   1.0268
     1.1384   1.1409   1.2570   1.7498   1.7882   1.7956   1.8320   1.8329
     1.9544   1.9765   2.0212   2.0441   2.2060   2.2130   2.4885   2.5131
     2.5375   2.5417   2.9637   2.9817   2.9979   3.0060   3.0153   3.0202
     3.0816   3.0827   3.2122   3.3497   3.3703   3.5454   3.5584   3.6572
     3.7246   3.7396   4.0210   4.0317   4.0836   4.0869   4.0961   4.1905
     4.2244   4.2309   4.2375   4.5296   4.5302   4.5614   4.5644   4.6781
     4.6842   4.7356   4.7576   4.9121   5.1533   5.6163   5.6278   5.6646
     5.7055   5.7987   5.8322   5.8498   5.9050   5.9154   5.9227   5.9247
     5.9481   6.0330   6.0394   6.0747   6.2825   6.3176   6.3228   6.3253
     6.3345   6.3414   6.3438   6.3487   6.4039   6.4560   6.5119   6.5710

          k = 0.2500 0.2500-0.2500 (167588 PWs)   bands (ev):

   -20.1673  -7.9353  -6.7043  -6.1743  -6.1742  -5.7363  -5.3448  -5.2389
    -5.2337  -5.0269  -5.0108  -4.9784  -4.9161  -4.8301  -4.7725  -4.7500
    -4.6589  -4.5748  -4.5685  -4.5496  -4.5396  -4.3690  -4.3681  -4.3659
    -4.3384  -4.3364  -4.3323  -4.3312  -4.2804  -4.2769  -4.2755  -4.2637
    -4.2119  -4.1837  -4.1799  -4.1276  -4.1238  -4.1225  -4.0877  -4.0857
    -4.0723  -4.0676  -4.0490  -4.0470  -4.0124  -3.9799  -3.9789  -3.9758
    -3.9742  -3.9726  -3.9422  -3.9139  -3.9090  -3.8840  -3.8823  -3.8792
    -3.8791  -3.8728  -3.8712  -3.8412  -3.8381  -3.7799  -3.7733  -3.7466
    -3.7176  -3.7138  -3.7100  -3.7095  -3.6867  -3.6847  -3.6758  -3.6253
    -3.6231  -3.6197  -3.6184  -3.5350  -3.5313  -3.5126  -3.5094  -3.4775
    -3.4757  -3.4599  -3.4361  -3.4331  -3.3918  -3.3902  -3.3891  -3.3862
    -3.3650  -3.3637  -3.2857  -3.2834  -3.2817  -3.2660  -3.2545  -3.2504
    -3.2366  -3.2361  -3.2298  -3.2297  -3.1874  -3.1834  -3.1654  -3.1648
    -3.1288  -3.1275  -3.1016  -3.0814  -3.0794  -3.0337  -3.0332  -3.0005
    -2.9736  -2.9729  -2.9714  -2.9711  -2.9673  -2.9656  -2.9428  -2.9303
    -2.8930  -2.8920  -2.8703  -2.8467  -2.8445  -2.8422  -2.8391  -2.8361
    -2.8335  -2.8334  -2.7988  -2.7985  -2.7975  -2.7930  -2.7905  -2.7870
    -2.7322  -2.7272  -2.7227  -2.7209  -2.7004  -2.6999  -2.6952  -2.6048
    -2.5956  -2.5954  -2.5863  -2.5851  -2.5812  -2.5792  -2.5767  -2.5690
    -2.5685  -2.5605  -2.5516  -2.5503  -2.5435  -2.5429  -2.5346  -2.5325
    -2.5257  -2.5038  -2.4946  -2.4936  -2.4773  -2.4767  -2.4635  -2.4609
    -2.4518  -2.4504  -2.4307  -2.4294  -2.4190  -2.4173  -2.4106  -2.3828
    -2.3772  -2.3762  -2.3235  -2.3155  -2.3128  -2.2986  -2.2976  -2.2828
    -2.2798  -2.2625  -2.2602  -2.2566  -2.2465  -2.2362  -2.2346  -2.2211
    -2.2154  -2.2121  -2.1899  -2.1838  -2.1792  -2.1763  -2.1697  -2.1643
    -2.1436  -2.1287  -2.1128  -2.0508  -2.0419  -2.0285  -2.0269  -2.0172
    -2.0071  -1.9682  -1.9633  -1.9493  -1.9316  -1.9205  -1.9169  -1.9005
    -1.8830  -1.8800  -1.8695  -1.8604  -1.8347  -1.8327  -1.8280  -1.8214
    -1.8195  -1.8147  -1.8105  -1.7972  -1.7854  -1.7776  -1.7772  -1.7766
    -1.7756  -1.7742  -1.7693  -1.7600  -1.7410  -1.7388  -1.7368  -1.7303
    -1.7191  -1.7176  -1.7151  -1.7130  -1.7076  -1.7068  -1.6730  -1.6668
    -1.6259  -1.6100  -1.6057  -1.5636  -1.5627  -1.5625  -1.5523  -1.5512
    -1.5390  -1.5368  -1.5319  -1.5257  -1.5206  -1.5136  -1.4975  -1.4964
    -1.4628  -1.4582  -1.4437  -1.4235  -1.4196  -1.3833  -1.3824  -1.3331
    -1.3314  -1.3103  -1.2870  -1.2850  -1.2847  -1.2795  -1.2774  -1.2606
    -1.2597  -1.2591  -1.2587  -1.2577  -1.2563  -1.2559  -1.2495  -1.2389
    -1.2250  -1.2226  -1.1933  -1.1928  -1.1904  -1.1701  -1.1684  -1.1652
    -1.1640  -1.1616  -1.1451  -1.1233  -1.1199  -1.1003  -1.0986  -1.0850
    -1.0776  -1.0658  -1.0594  -1.0373  -1.0362  -1.0306  -1.0255  -0.9913
    -0.9898  -0.9795  -0.9780  -0.9773  -0.9692  -0.9514  -0.9509  -0.9380
    -0.9297  -0.9284  -0.9190  -0.9174  -0.9160  -0.9098  -0.9058  -0.8949
    -0.8927  -0.8867  -0.8859  -0.8809  -0.8754  -0.8642  -0.8605  -0.8179
    -0.8165  -0.8162  -0.8148  -0.8088  -0.8022  -0.7805  -0.7737  -0.7679
    -0.7507  -0.7465  -0.7404  -0.7368  -0.7323  -0.7233  -0.7153  -0.6894
    -0.6795  -0.6761  -0.6717  -0.6559  -0.6546  -0.6404  -0.6168  -0.6086
    -0.5907  -0.5893  -0.5532  -0.5524  -0.5515  -0.5480  -0.5430  -0.5418
    -0.5415  -0.5413  -0.5355  -0.5346  -0.5023  -0.5020  -0.5013  -0.5010
    -0.5003  -0.4870  -0.4848  -0.4640  -0.4564  -0.1974  -0.1860  -0.1471
    -0.1217  -0.1070  -0.0527   0.0996   0.1014   0.1412   0.4141   0.4241
     0.7508   0.7712   0.7997   0.8021   0.8478   0.8546   1.0052   1.0269
     1.1384   1.1409   1.2570   1.7498   1.7882   1.7956   1.8320   1.8329
     1.9544   1.9765   2.0212   2.0441   2.2060   2.2130   2.4885   2.5131
     2.5375   2.5417   2.9637   2.9817   2.9979   3.0060   3.0153   3.0202
     3.0816   3.0827   3.2122   3.3497   3.3703   3.5454   3.5584   3.6572
     3.7247   3.7396   4.0210   4.0317   4.0836   4.0869   4.0961   4.1906
     4.2245   4.2309   4.2375   4.5295   4.5302   4.5614   4.5644   4.6781
     4.6842   4.7356   4.7575   4.9118   5.1511   5.6163   5.6277   5.6649
     5.6960   5.7814   5.8320   5.8500   5.9051   5.9193   5.9235   5.9251
     5.9910   6.0283   6.0377   6.1006   6.2568   6.3186   6.3233   6.3299
     6.3335   6.3409   6.3492   6.3914   6.4209   6.5007   6.5334   6.5681

          k =-0.2500-0.2500 0.0833 (167653 PWs)   bands (ev):

   -20.1673  -7.9353  -6.7043  -6.1743  -6.1742  -5.7363  -5.3448  -5.2389
    -5.2337  -5.0269  -5.0108  -4.9784  -4.9161  -4.8301  -4.7725  -4.7500
    -4.6589  -4.5748  -4.5685  -4.5496  -4.5396  -4.3690  -4.3681  -4.3659
    -4.3384  -4.3364  -4.3322  -4.3312  -4.2804  -4.2769  -4.2755  -4.2637
    -4.2119  -4.1837  -4.1799  -4.1276  -4.1238  -4.1225  -4.0877  -4.0857
    -4.0723  -4.0676  -4.0490  -4.0470  -4.0124  -3.9799  -3.9789  -3.9758
    -3.9742  -3.9726  -3.9422  -3.9139  -3.9090  -3.8840  -3.8823  -3.8792
    -3.8791  -3.8728  -3.8712  -3.8412  -3.8381  -3.7799  -3.7733  -3.7466
    -3.7176  -3.7139  -3.7100  -3.7095  -3.6867  -3.6847  -3.6758  -3.6252
    -3.6231  -3.6198  -3.6184  -3.5350  -3.5313  -3.5126  -3.5094  -3.4775
    -3.4757  -3.4599  -3.4361  -3.4331  -3.3918  -3.3902  -3.3891  -3.3862
    -3.3650  -3.3637  -3.2857  -3.2834  -3.2817  -3.2660  -3.2545  -3.2504
    -3.2366  -3.2361  -3.2298  -3.2297  -3.1874  -3.1834  -3.1654  -3.1648
    -3.1288  -3.1275  -3.1016  -3.0814  -3.0794  -3.0337  -3.0332  -3.0005
    -2.9736  -2.9729  -2.9714  -2.9711  -2.9673  -2.9656  -2.9427  -2.9303
    -2.8930  -2.8920  -2.8703  -2.8467  -2.8445  -2.8422  -2.8391  -2.8361
    -2.8335  -2.8334  -2.7989  -2.7985  -2.7975  -2.7930  -2.7905  -2.7870
    -2.7322  -2.7272  -2.7227  -2.7209  -2.7004  -2.6999  -2.6953  -2.6048
    -2.5956  -2.5954  -2.5863  -2.5851  -2.5812  -2.5792  -2.5767  -2.5690
    -2.5685  -2.5605  -2.5516  -2.5503  -2.5435  -2.5429  -2.5347  -2.5325
    -2.5257  -2.5038  -2.4946  -2.4936  -2.4773  -2.4767  -2.4635  -2.4609
    -2.4518  -2.4504  -2.4307  -2.4294  -2.4190  -2.4173  -2.4106  -2.3828
    -2.3772  -2.3762  -2.3235  -2.3155  -2.3128  -2.2986  -2.2976  -2.2828
    -2.2798  -2.2625  -2.2602  -2.2566  -2.2465  -2.2362  -2.2346  -2.2211
    -2.2154  -2.2121  -2.1899  -2.1838  -2.1792  -2.1763  -2.1697  -2.1643
    -2.1436  -2.1287  -2.1128  -2.0508  -2.0419  -2.0285  -2.0269  -2.0172
    -2.0071  -1.9682  -1.9633  -1.9493  -1.9316  -1.9205  -1.9169  -1.9005
    -1.8830  -1.8800  -1.8695  -1.8604  -1.8347  -1.8327  -1.8280  -1.8214
    -1.8195  -1.8147  -1.8105  -1.7972  -1.7854  -1.7776  -1.7772  -1.7766
    -1.7756  -1.7742  -1.7693  -1.7600  -1.7410  -1.7388  -1.7368  -1.7303
    -1.7191  -1.7176  -1.7151  -1.7130  -1.7076  -1.7068  -1.6731  -1.6668
    -1.6259  -1.6100  -1.6057  -1.5636  -1.5627  -1.5625  -1.5523  -1.5512
    -1.5390  -1.5368  -1.5319  -1.5257  -1.5206  -1.5136  -1.4975  -1.4964
    -1.4628  -1.4582  -1.4437  -1.4235  -1.4196  -1.3832  -1.3824  -1.3331
    -1.3314  -1.3103  -1.2869  -1.2850  -1.2847  -1.2795  -1.2774  -1.2606
    -1.2597  -1.2591  -1.2587  -1.2577  -1.2563  -1.2559  -1.2495  -1.2389
    -1.2250  -1.2226  -1.1933  -1.1928  -1.1904  -1.1701  -1.1684  -1.1652
    -1.1640  -1.1616  -1.1451  -1.1233  -1.1199  -1.1003  -1.0986  -1.0850
    -1.0776  -1.0658  -1.0594  -1.0373  -1.0362  -1.0306  -1.0255  -0.9913
    -0.9898  -0.9795  -0.9780  -0.9774  -0.9692  -0.9514  -0.9509  -0.9380
    -0.9297  -0.9284  -0.9191  -0.9174  -0.9160  -0.9098  -0.9058  -0.8949
    -0.8927  -0.8867  -0.8860  -0.8809  -0.8754  -0.8642  -0.8605  -0.8179
    -0.8165  -0.8162  -0.8148  -0.8087  -0.8021  -0.7805  -0.7737  -0.7679
    -0.7507  -0.7465  -0.7404  -0.7368  -0.7323  -0.7233  -0.7153  -0.6894
    -0.6795  -0.6761  -0.6717  -0.6559  -0.6546  -0.6404  -0.6168  -0.6086
    -0.5907  -0.5893  -0.5532  -0.5524  -0.5514  -0.5480  -0.5430  -0.5418
    -0.5415  -0.5413  -0.5355  -0.5346  -0.5023  -0.5020  -0.5013  -0.5010
    -0.5003  -0.4870  -0.4848  -0.4640  -0.4565  -0.1974  -0.1860  -0.1471
    -0.1217  -0.1070  -0.0527   0.0996   0.1014   0.1412   0.4141   0.4241
     0.7508   0.7712   0.7997   0.8021   0.8478   0.8546   1.0051   1.0268
     1.1384   1.1409   1.2570   1.7498   1.7882   1.7956   1.8320   1.8329
     1.9544   1.9765   2.0212   2.0441   2.2060   2.2130   2.4885   2.5131
     2.5375   2.5417   2.9637   2.9817   2.9979   3.0060   3.0153   3.0202
     3.0816   3.0827   3.2122   3.3497   3.3703   3.5454   3.5584   3.6572
     3.7246   3.7396   4.0210   4.0317   4.0836   4.0869   4.0961   4.1905
     4.2244   4.2309   4.2375   4.5296   4.5302   4.5614   4.5644   4.6781
     4.6842   4.7356   4.7576   4.9121   5.1533   5.6163   5.6278   5.6647
     5.7056   5.7983   5.8322   5.8498   5.9051   5.9156   5.9227   5.9247
     5.9488   6.0330   6.0394   6.0743   6.2828   6.3174   6.3227   6.3251
     6.3346   6.3412   6.3440   6.3487   6.4026   6.4565   6.5115   6.5720

          k =-0.2500 0.2500-0.0833 (167653 PWs)   bands (ev):

   -20.1673  -7.9353  -6.7043  -6.1744  -6.1741  -5.7363  -5.3448  -5.2388
    -5.2339  -5.0269  -5.0108  -4.9783  -4.9163  -4.8299  -4.7725  -4.7501
    -4.6589  -4.5748  -4.5685  -4.5497  -4.5395  -4.3691  -4.3682  -4.3658
    -4.3383  -4.3366  -4.3317  -4.3316  -4.2806  -4.2770  -4.2754  -4.2637
    -4.2119  -4.1837  -4.1799  -4.1276  -4.1238  -4.1225  -4.0879  -4.0855
    -4.0723  -4.0676  -4.0490  -4.0470  -4.0125  -3.9801  -3.9787  -3.9759
    -3.9743  -3.9724  -3.9423  -3.9139  -3.9087  -3.8841  -3.8822  -3.8792
    -3.8790  -3.8728  -3.8712  -3.8413  -3.8378  -3.7800  -3.7732  -3.7467
    -3.7175  -3.7138  -3.7098  -3.7096  -3.6867  -3.6847  -3.6758  -3.6252
    -3.6231  -3.6199  -3.6183  -3.5351  -3.5313  -3.5127  -3.5095  -3.4775
    -3.4757  -3.4599  -3.4361  -3.4331  -3.3919  -3.3902  -3.3892  -3.3862
    -3.3651  -3.3636  -3.2854  -3.2833  -3.2818  -3.2660  -3.2543  -3.2505
    -3.2366  -3.2360  -3.2299  -3.2298  -3.1873  -3.1834  -3.1655  -3.1649
    -3.1287  -3.1277  -3.1016  -3.0810  -3.0795  -3.0338  -3.0331  -3.0007
    -2.9738  -2.9731  -2.9714  -2.9711  -2.9674  -2.9656  -2.9427  -2.9303
    -2.8929  -2.8920  -2.8702  -2.8467  -2.8447  -2.8421  -2.8393  -2.8359
    -2.8335  -2.8334  -2.7987  -2.7983  -2.7975  -2.7928  -2.7905  -2.7871
    -2.7319  -2.7271  -2.7227  -2.7210  -2.7005  -2.7001  -2.6954  -2.6048
    -2.5957  -2.5952  -2.5865  -2.5850  -2.5807  -2.5793  -2.5767  -2.5690
    -2.5686  -2.5609  -2.5510  -2.5501  -2.5435  -2.5428  -2.5343  -2.5318
    -2.5257  -2.5038  -2.4953  -2.4941  -2.4774  -2.4768  -2.4631  -2.4608
    -2.4519  -2.4504  -2.4303  -2.4286  -2.4190  -2.4167  -2.4107  -2.3846
    -2.3772  -2.3763  -2.3234  -2.3147  -2.3117  -2.2985  -2.2978  -2.2835
    -2.2815  -2.2624  -2.2602  -2.2567  -2.2467  -2.2372  -2.2350  -2.2211
    -2.2161  -2.2127  -2.1900  -2.1837  -2.1795  -2.1767  -2.1698  -2.1669
    -2.1435  -2.1269  -2.1114  -2.0504  -2.0423  -2.0286  -2.0267  -2.0176
    -2.0067  -1.9684  -1.9621  -1.9460  -1.9316  -1.9206  -1.9173  -1.9007
    -1.8829  -1.8801  -1.8695  -1.8604  -1.8350  -1.8328  -1.8260  -1.8212
    -1.8194  -1.8148  -1.8113  -1.7968  -1.7855  -1.7776  -1.7772  -1.7767
    -1.7755  -1.7746  -1.7683  -1.7602  -1.7411  -1.7384  -1.7361  -1.7305
    -1.7193  -1.7180  -1.7151  -1.7126  -1.7077  -1.7069  -1.6733  -1.6662
    -1.6258  -1.6103  -1.6054  -1.5638  -1.5625  -1.5625  -1.5526  -1.5513
    -1.5393  -1.5377  -1.5321  -1.5248  -1.5207  -1.5147  -1.4985  -1.4967
    -1.4629  -1.4581  -1.4437  -1.4237  -1.4194  -1.3834  -1.3825  -1.3332
    -1.3312  -1.3103  -1.2867  -1.2852  -1.2846  -1.2796  -1.2777  -1.2606
    -1.2598  -1.2590  -1.2586  -1.2577  -1.2563  -1.2554  -1.2498  -1.2385
    -1.2254  -1.2225  -1.1934  -1.1928  -1.1910  -1.1701  -1.1687  -1.1654
    -1.1639  -1.1612  -1.1443  -1.1239  -1.1197  -1.1002  -1.0991  -1.0842
    -1.0776  -1.0660  -1.0593  -1.0374  -1.0362  -1.0307  -1.0253  -0.9915
    -0.9892  -0.9798  -0.9779  -0.9774  -0.9689  -0.9514  -0.9507  -0.9381
    -0.9298  -0.9283  -0.9194  -0.9175  -0.9158  -0.9095  -0.9060  -0.8947
    -0.8925  -0.8867  -0.8859  -0.8807  -0.8759  -0.8644  -0.8606  -0.8181
    -0.8164  -0.8159  -0.8149  -0.8088  -0.8020  -0.7816  -0.7737  -0.7680
    -0.7510  -0.7459  -0.7406  -0.7368  -0.7323  -0.7234  -0.7151  -0.6896
    -0.6794  -0.6762  -0.6714  -0.6560  -0.6544  -0.6404  -0.6169  -0.6087
    -0.5908  -0.5892  -0.5531  -0.5524  -0.5514  -0.5480  -0.5430  -0.5417
    -0.5415  -0.5413  -0.5354  -0.5346  -0.5026  -0.5019  -0.5016  -0.5010
    -0.5004  -0.4869  -0.4849  -0.4630  -0.4565  -0.1974  -0.1860  -0.1477
    -0.1211  -0.1070  -0.0522   0.0994   0.1018   0.1413   0.4137   0.4246
     0.7502   0.7716   0.7995   0.8026   0.8475   0.8552   1.0042   1.0275
     1.1384   1.1408   1.2572   1.7501   1.7874   1.7956   1.8321   1.8327
     1.9531   1.9773   2.0207   2.0454   2.2056   2.2133   2.4883   2.5125
     2.5377   2.5419   2.9627   2.9811   2.9976   3.0068   3.0151   3.0206
     3.0817   3.0826   3.2114   3.3488   3.3728   3.5453   3.5608   3.6571
     3.7242   3.7399   4.0203   4.0331   4.0831   4.0867   4.0957   4.1940
     4.2221   4.2304   4.2373   4.5295   4.5304   4.5625   4.5639   4.6777
     4.6854   4.7342   4.7527   4.9074   5.1613   5.6135   5.6283   5.6613
     5.7087   5.8039   5.8319   5.8522   5.9041   5.9159   5.9226   5.9251
     5.9516   6.0320   6.0399   6.0591   6.2863   6.3164   6.3218   6.3255
     6.3348   6.3407   6.3431   6.3478   6.4135   6.4525   6.5110   6.5763

          k = 0.2500-0.2500-0.0833 (167653 PWs)   bands (ev):

   -20.1673  -7.9353  -6.7043  -6.1744  -6.1741  -5.7363  -5.3448  -5.2388
    -5.2339  -5.0269  -5.0108  -4.9783  -4.9163  -4.8299  -4.7725  -4.7501
    -4.6589  -4.5748  -4.5685  -4.5497  -4.5395  -4.3691  -4.3682  -4.3658
    -4.3383  -4.3366  -4.3317  -4.3316  -4.2806  -4.2770  -4.2754  -4.2637
    -4.2119  -4.1837  -4.1799  -4.1276  -4.1238  -4.1225  -4.0879  -4.0855
    -4.0723  -4.0676  -4.0490  -4.0470  -4.0125  -3.9801  -3.9787  -3.9759
    -3.9743  -3.9724  -3.9423  -3.9139  -3.9087  -3.8841  -3.8822  -3.8792
    -3.8790  -3.8728  -3.8712  -3.8413  -3.8378  -3.7800  -3.7732  -3.7467
    -3.7175  -3.7138  -3.7098  -3.7096  -3.6867  -3.6847  -3.6758  -3.6252
    -3.6231  -3.6199  -3.6183  -3.5351  -3.5313  -3.5127  -3.5095  -3.4775
    -3.4757  -3.4599  -3.4361  -3.4331  -3.3919  -3.3902  -3.3892  -3.3862
    -3.3651  -3.3636  -3.2854  -3.2833  -3.2818  -3.2660  -3.2543  -3.2505
    -3.2366  -3.2360  -3.2299  -3.2298  -3.1873  -3.1834  -3.1655  -3.1649
    -3.1287  -3.1277  -3.1016  -3.0810  -3.0795  -3.0338  -3.0331  -3.0007
    -2.9738  -2.9731  -2.9714  -2.9711  -2.9674  -2.9656  -2.9427  -2.9303
    -2.8929  -2.8920  -2.8702  -2.8467  -2.8447  -2.8421  -2.8393  -2.8359
    -2.8335  -2.8334  -2.7987  -2.7983  -2.7975  -2.7928  -2.7905  -2.7871
    -2.7319  -2.7271  -2.7227  -2.7210  -2.7005  -2.7001  -2.6954  -2.6048
    -2.5957  -2.5952  -2.5865  -2.5850  -2.5807  -2.5793  -2.5767  -2.5690
    -2.5686  -2.5609  -2.5510  -2.5501  -2.5435  -2.5428  -2.5343  -2.5318
    -2.5257  -2.5038  -2.4953  -2.4941  -2.4774  -2.4768  -2.4631  -2.4608
    -2.4519  -2.4504  -2.4303  -2.4286  -2.4190  -2.4167  -2.4107  -2.3846
    -2.3772  -2.3763  -2.3234  -2.3147  -2.3117  -2.2985  -2.2978  -2.2835
    -2.2815  -2.2624  -2.2602  -2.2567  -2.2467  -2.2372  -2.2350  -2.2211
    -2.2161  -2.2127  -2.1900  -2.1837  -2.1795  -2.1767  -2.1698  -2.1669
    -2.1435  -2.1269  -2.1114  -2.0504  -2.0423  -2.0286  -2.0267  -2.0176
    -2.0067  -1.9684  -1.9621  -1.9460  -1.9316  -1.9206  -1.9173  -1.9007
    -1.8829  -1.8801  -1.8695  -1.8604  -1.8350  -1.8328  -1.8260  -1.8212
    -1.8194  -1.8148  -1.8113  -1.7968  -1.7855  -1.7776  -1.7772  -1.7767
    -1.7755  -1.7746  -1.7683  -1.7602  -1.7411  -1.7384  -1.7361  -1.7305
    -1.7193  -1.7180  -1.7151  -1.7126  -1.7077  -1.7069  -1.6733  -1.6662
    -1.6258  -1.6103  -1.6054  -1.5638  -1.5625  -1.5625  -1.5526  -1.5513
    -1.5393  -1.5377  -1.5321  -1.5248  -1.5207  -1.5147  -1.4985  -1.4967
    -1.4629  -1.4581  -1.4437  -1.4237  -1.4194  -1.3834  -1.3825  -1.3332
    -1.3312  -1.3103  -1.2867  -1.2852  -1.2846  -1.2796  -1.2777  -1.2606
    -1.2598  -1.2590  -1.2586  -1.2577  -1.2563  -1.2554  -1.2498  -1.2385
    -1.2254  -1.2225  -1.1934  -1.1928  -1.1910  -1.1701  -1.1687  -1.1654
    -1.1639  -1.1612  -1.1443  -1.1239  -1.1197  -1.1002  -1.0991  -1.0842
    -1.0776  -1.0660  -1.0593  -1.0374  -1.0362  -1.0307  -1.0253  -0.9915
    -0.9892  -0.9798  -0.9779  -0.9774  -0.9689  -0.9514  -0.9507  -0.9381
    -0.9298  -0.9283  -0.9194  -0.9175  -0.9158  -0.9095  -0.9060  -0.8947
    -0.8925  -0.8867  -0.8859  -0.8807  -0.8759  -0.8644  -0.8606  -0.8181
    -0.8164  -0.8159  -0.8149  -0.8088  -0.8020  -0.7816  -0.7737  -0.7680
    -0.7510  -0.7459  -0.7406  -0.7368  -0.7323  -0.7234  -0.7151  -0.6896
    -0.6794  -0.6762  -0.6714  -0.6560  -0.6544  -0.6404  -0.6169  -0.6087
    -0.5908  -0.5892  -0.5531  -0.5524  -0.5514  -0.5480  -0.5430  -0.5417
    -0.5415  -0.5413  -0.5354  -0.5346  -0.5026  -0.5019  -0.5016  -0.5010
    -0.5004  -0.4869  -0.4849  -0.4630  -0.4565  -0.1974  -0.1860  -0.1477
    -0.1211  -0.1070  -0.0522   0.0994   0.1018   0.1413   0.4137   0.4246
     0.7502   0.7716   0.7995   0.8026   0.8475   0.8552   1.0042   1.0275
     1.1384   1.1408   1.2572   1.7501   1.7874   1.7956   1.8321   1.8327
     1.9531   1.9773   2.0207   2.0454   2.2056   2.2133   2.4883   2.5125
     2.5377   2.5419   2.9627   2.9811   2.9976   3.0068   3.0151   3.0206
     3.0817   3.0826   3.2114   3.3488   3.3728   3.5453   3.5608   3.6571
     3.7242   3.7399   4.0203   4.0331   4.0831   4.0867   4.0957   4.1940
     4.2221   4.2304   4.2373   4.5295   4.5304   4.5625   4.5639   4.6777
     4.6854   4.7342   4.7527   4.9074   5.1613   5.6135   5.6283   5.6613
     5.7087   5.8043   5.8319   5.8522   5.9040   5.9158   5.9226   5.9251
     5.9509   6.0321   6.0398   6.0595   6.2861   6.3167   6.3219   6.3255
     6.3348   6.3408   6.3429   6.3478   6.4148   6.4518   6.5112   6.5757

          k =-0.2500 0.2500 0.2500 (167588 PWs)   bands (ev):

   -20.1673  -7.9353  -6.7043  -6.1744  -6.1741  -5.7364  -5.3448  -5.2388
    -5.2339  -5.0269  -5.0108  -4.9783  -4.9163  -4.8299  -4.7725  -4.7501
    -4.6589  -4.5748  -4.5685  -4.5497  -4.5395  -4.3691  -4.3682  -4.3658
    -4.3383  -4.3366  -4.3317  -4.3317  -4.2806  -4.2770  -4.2754  -4.2637
    -4.2119  -4.1837  -4.1799  -4.1276  -4.1238  -4.1225  -4.0879  -4.0855
    -4.0723  -4.0676  -4.0490  -4.0470  -4.0125  -3.9801  -3.9787  -3.9759
    -3.9743  -3.9724  -3.9422  -3.9139  -3.9087  -3.8841  -3.8822  -3.8792
    -3.8791  -3.8728  -3.8712  -3.8413  -3.8378  -3.7800  -3.7732  -3.7467
    -3.7175  -3.7138  -3.7098  -3.7096  -3.6867  -3.6847  -3.6758  -3.6252
    -3.6231  -3.6199  -3.6183  -3.5351  -3.5313  -3.5127  -3.5095  -3.4775
    -3.4757  -3.4599  -3.4361  -3.4331  -3.3919  -3.3902  -3.3892  -3.3862
    -3.3651  -3.3636  -3.2854  -3.2833  -3.2818  -3.2660  -3.2543  -3.2505
    -3.2366  -3.2360  -3.2299  -3.2298  -3.1873  -3.1834  -3.1655  -3.1649
    -3.1287  -3.1277  -3.1016  -3.0810  -3.0795  -3.0338  -3.0331  -3.0007
    -2.9738  -2.9731  -2.9714  -2.9711  -2.9674  -2.9656  -2.9427  -2.9303
    -2.8929  -2.8920  -2.8702  -2.8467  -2.8447  -2.8421  -2.8393  -2.8359
    -2.8335  -2.8334  -2.7987  -2.7983  -2.7975  -2.7928  -2.7905  -2.7871
    -2.7319  -2.7271  -2.7227  -2.7210  -2.7005  -2.7001  -2.6954  -2.6048
    -2.5957  -2.5952  -2.5865  -2.5850  -2.5807  -2.5793  -2.5767  -2.5690
    -2.5686  -2.5609  -2.5510  -2.5501  -2.5435  -2.5428  -2.5343  -2.5318
    -2.5257  -2.5038  -2.4953  -2.4941  -2.4774  -2.4768  -2.4631  -2.4608
    -2.4519  -2.4504  -2.4303  -2.4286  -2.4190  -2.4167  -2.4107  -2.3846
    -2.3772  -2.3763  -2.3234  -2.3147  -2.3117  -2.2985  -2.2978  -2.2835
    -2.2815  -2.2624  -2.2602  -2.2567  -2.2467  -2.2372  -2.2349  -2.2211
    -2.2161  -2.2127  -2.1900  -2.1837  -2.1795  -2.1767  -2.1698  -2.1669
    -2.1435  -2.1269  -2.1114  -2.0504  -2.0423  -2.0286  -2.0267  -2.0176
    -2.0067  -1.9684  -1.9621  -1.9460  -1.9316  -1.9206  -1.9173  -1.9007
    -1.8829  -1.8801  -1.8695  -1.8604  -1.8350  -1.8328  -1.8260  -1.8212
    -1.8194  -1.8148  -1.8113  -1.7968  -1.7855  -1.7776  -1.7772  -1.7767
    -1.7755  -1.7746  -1.7683  -1.7602  -1.7411  -1.7384  -1.7361  -1.7305
    -1.7193  -1.7180  -1.7151  -1.7126  -1.7077  -1.7069  -1.6733  -1.6662
    -1.6258  -1.6103  -1.6054  -1.5638  -1.5625  -1.5625  -1.5526  -1.5513
    -1.5393  -1.5377  -1.5321  -1.5248  -1.5207  -1.5147  -1.4985  -1.4967
    -1.4629  -1.4581  -1.4438  -1.4237  -1.4194  -1.3834  -1.3825  -1.3332
    -1.3312  -1.3103  -1.2867  -1.2852  -1.2846  -1.2796  -1.2777  -1.2606
    -1.2598  -1.2590  -1.2586  -1.2577  -1.2563  -1.2554  -1.2498  -1.2385
    -1.2254  -1.2225  -1.1935  -1.1928  -1.1910  -1.1701  -1.1687  -1.1654
    -1.1639  -1.1612  -1.1443  -1.1239  -1.1196  -1.1002  -1.0991  -1.0842
    -1.0776  -1.0660  -1.0593  -1.0374  -1.0362  -1.0307  -1.0253  -0.9915
    -0.9892  -0.9798  -0.9779  -0.9774  -0.9689  -0.9514  -0.9507  -0.9381
    -0.9298  -0.9283  -0.9194  -0.9175  -0.9158  -0.9095  -0.9060  -0.8947
    -0.8925  -0.8867  -0.8859  -0.8807  -0.8759  -0.8644  -0.8606  -0.8181
    -0.8164  -0.8159  -0.8149  -0.8088  -0.8020  -0.7816  -0.7737  -0.7680
    -0.7510  -0.7459  -0.7406  -0.7367  -0.7323  -0.7234  -0.7151  -0.6896
    -0.6794  -0.6762  -0.6714  -0.6560  -0.6544  -0.6404  -0.6169  -0.6087
    -0.5908  -0.5892  -0.5531  -0.5524  -0.5514  -0.5480  -0.5430  -0.5417
    -0.5415  -0.5413  -0.5354  -0.5346  -0.5026  -0.5019  -0.5016  -0.5010
    -0.5004  -0.4869  -0.4849  -0.4630  -0.4565  -0.1974  -0.1860  -0.1477
    -0.1211  -0.1070  -0.0522   0.0994   0.1018   0.1413   0.4137   0.4246
     0.7502   0.7716   0.7995   0.8026   0.8475   0.8552   1.0043   1.0275
     1.1384   1.1408   1.2572   1.7501   1.7874   1.7956   1.8321   1.8327
     1.9531   1.9773   2.0207   2.0454   2.2057   2.2133   2.4883   2.5125
     2.5377   2.5419   2.9627   2.9811   2.9976   3.0068   3.0151   3.0206
     3.0817   3.0826   3.2114   3.3488   3.3728   3.5453   3.5608   3.6571
     3.7242   3.7399   4.0203   4.0331   4.0831   4.0867   4.0957   4.1941
     4.2222   4.2304   4.2373   4.5295   4.5304   4.5625   4.5639   4.6777
     4.6854   4.7342   4.7526   4.9072   5.1591   5.6135   5.6284   5.6615
     5.6981   5.7892   5.8316   5.8526   5.9040   5.9191   5.9233   5.9258
     5.9846   6.0232   6.0365   6.1038   6.2597   6.3182   6.3245   6.3306
     6.3333   6.3411   6.3482   6.3858   6.4197   6.5082   6.5324   6.5693

     the Fermi energy is     1.0847 ev

!    total energy              =   -7379.98394298 Ry
     Harris-Foulkes estimate   =   -7379.98394299 Ry
     estimated scf accuracy    <          6.1E-09 Ry

     The total energy is the sum of the following terms:

     one-electron contribution =  -48829.62017214 Ry
     hartree contribution      =   24967.89598945 Ry
     xc contribution           =   -3556.26208154 Ry
     ewald contribution        =   20038.00115288 Ry
     smearing contrib. (-TS)   =       0.00116837 Ry

     convergence has been achieved in  25 iterations

     Writing output data file 6963946.save

     init_run     :     96.29s CPU    111.92s WALL (       1 calls)
     electrons    :   6266.49s CPU   7506.72s WALL (       1 calls)

     Called by init_run:
     wfcinit      :     74.20s CPU     88.10s WALL (       1 calls)
     potinit      :      3.64s CPU      4.14s WALL (       1 calls)

     Called by electrons:
     c_bands      :   5212.38s CPU   6360.64s WALL (      26 calls)
     sum_band     :    709.38s CPU    782.21s WALL (      26 calls)
     v_of_rho     :     17.53s CPU     20.50s WALL (      26 calls)
     newd         :    332.00s CPU    347.28s WALL (      26 calls)
     mix_rho      :      3.18s CPU      3.61s WALL (      26 calls)

     Called by c_bands:
     init_us_2    :     11.48s CPU     12.50s WALL (     318 calls)
     cegterg      :   5168.28s CPU   6307.85s WALL (     156 calls)

     Called by *egterg:
     h_psi        :   2059.04s CPU   2416.98s WALL (     803 calls)
     s_psi        :    328.01s CPU    344.03s WALL (     803 calls)
     g_psi        :      4.08s CPU      4.07s WALL (     641 calls)
     cdiaghg      :   1413.14s CPU   1419.71s WALL (     791 calls)

     Called by h_psi:
     add_vuspsi   :    329.62s CPU    346.01s WALL (     803 calls)

     General routines
     calbec       :    481.92s CPU    484.82s WALL (     959 calls)
     fft          :     65.24s CPU     69.25s WALL (     416 calls)
     ffts         :      1.53s CPU      1.87s WALL (      52 calls)
     fftw         :   1387.29s CPU   1727.20s WALL (  413560 calls)
     interpolate  :      4.70s CPU      5.59s WALL (      52 calls)
     davcio       :      0.00s CPU      0.13s WALL (       6 calls)

     Parallel routines
     fft_scatter  :    955.00s CPU   1188.62s WALL (  414028 calls)

     PWSCF        :     1h46m CPU        2h 7m WALL


   This run was terminated on:   1:47:49   9Aug2015            

=------------------------------------------------------------------------------=
   JOB DONE.
=------------------------------------------------------------------------------=
