Setting SGE environment for SCC

     Program PWSCF v.5.1.2 starts on  8Aug2015 at 21:36:39 

     This program is part of the open-source Quantum ESPRESSO suite
     for quantum simulation of materials; please cite
         "P. Giannozzi et al., J. Phys.:Condens. Matter 21 395502 (2009);
          URL http://www.quantum-espresso.org", 
     in publications or presentations arising from this work. More details at
     http://www.quantum-espresso.org/quote

     Parallel version (MPI), running on    32 processors
     R & G space division:  proc/nbgrp/npool/nimage =      32
     Reading input from top.O1.Au62.d.3.4.phi.0.psi.180.in
Warning: card &IONS ignored
Warning: card / ignored
Warning: card &CELL ignored
Warning: card / ignored

     Current dimensions of program PWSCF are:
     Max number of different atomic species (ntypx) = 10
     Max number of k-points (npk) =  40000
     Max angular momentum in pseudopotentials (lmaxx) =  3

     Subspace diagonalization in iterative solution of the eigenvalue problem:
     a serial algorithm will be used


     Parallelization info
     --------------------
     sticks:   dense  smooth     PW     G-vecs:    dense   smooth      PW
     Min         578     289     74               118518    41891    5486
     Max         579     290     75               118533    41932    5497
     Sum       18505    9265   2385              3792731  1341081  175711


     Title: 
     top.O1.Au62.d.3.4.phi.0.psi.180                                            


     bravais-lattice index     =            8
     lattice parameter (alat)  =      24.1233  a.u.
     unit-cell volume          =   28076.2361 (a.u.)^3
     number of atoms/cell      =           75
     number of atomic types    =            3
     number of electrons       =       800.00
     number of Kohn-Sham states=          480
     kinetic-energy cutoff     =      50.0000  Ry
     charge density cutoff     =     400.0000  Ry
     convergence threshold     =      1.0E-08
     mixing beta               =       0.7000
     number of iterations used =            8  plain     mixing
     Exchange-correlation      =  SLA  PW   PBE  PBE ( 1  4  3  4 0 0)

     celldm(1)=  24.123277  celldm(2)=   1.000000  celldm(3)=   2.000000
     celldm(4)=   0.000000  celldm(5)=   0.000000  celldm(6)=   0.000000

     crystal axes: (cart. coord. in units of alat)
               a(1) = (   1.000000   0.000000   0.000000 )  
               a(2) = (   0.000000   1.000000   0.000000 )  
               a(3) = (   0.000000   0.000000   2.000000 )  

     reciprocal axes: (cart. coord. in units 2 pi/alat)
               b(1) = (  1.000000  0.000000  0.000000 )  
               b(2) = (  0.000000  1.000000  0.000000 )  
               b(3) = (  0.000000  0.000000  0.500000 )  


     PseudoPot. # 1 for Au read from file:
     /home/scc/andrejb/qe/pseudo/Au.pbe-nd-van.UPF
     MD5 check sum: 458681b50f36d87ef23c61b04bba420a
     Pseudo is Ultrasoft + core correction, Zval = 11.0
     Generated by new atomic code, or converted to UPF format
     Using radial grid of  985 points,  3 beta functions with: 
                l(1) =   1
                l(2) =   2
                l(3) =   2
     Q(r) pseudized with  8 coefficients,  rinner =    1.100   1.100   1.100
                                                       1.100   1.100

     PseudoPot. # 2 for H  read from file:
     /home/scc/andrejb/qe/pseudo/H.pbe-van_ak.UPF
     MD5 check sum: 403db7282739603aa925980fa9b8608d
     Pseudo is Ultrasoft, Zval =  1.0
     Generated by new atomic code, or converted to UPF format
     Using radial grid of  615 points,  1 beta functions with: 
                l(1) =   0
     Q(r) pseudized with  8 coefficients,  rinner =    0.800

     PseudoPot. # 3 for O  read from file:
     /home/scc/andrejb/qe/pseudo/O.pbe-van_ak.UPF
     MD5 check sum: 4b8c549914a63cae506c6ff22b5af4fe
     Pseudo is Ultrasoft, Zval =  6.0
     Generated by new atomic code, or converted to UPF format
     Using radial grid of  737 points,  4 beta functions with: 
                l(1) =   0
                l(2) =   0
                l(3) =   1
                l(4) =   1
     Q(r) pseudized with  8 coefficients,  rinner =    0.800   0.800   0.800


     atomic species   valence    mass     pseudopotential
        Au            11.00   196.96657     Au( 1.00)
        H              1.00     1.01000     H ( 1.00)
        O              6.00    16.00000     O ( 1.00)

     No symmetry found



   Cartesian axes

     site n.     atom                  positions (alat units)
         1           O   tau(   1) = (   0.4998324   0.3332216   0.9693358  )
         2           H   tau(   2) = (   0.4527548   0.3723931   0.9238419  )
         3           H   tau(   3) = (   0.5454827   0.2952199   0.9214781  )
         4           Au  tau(   4) = (   0.0000000   0.0000000   0.0000000  )
         5           Au  tau(   5) = (   0.3332217   0.0000000   0.0000000  )
         6           Au  tau(   6) = (   0.6664434   0.0000000   0.0000000  )
         7           Au  tau(   7) = (   0.1666109   0.1666109   0.0000000  )
         8           Au  tau(   8) = (   0.4998326   0.1666109   0.0000000  )
         9           Au  tau(   9) = (   0.8330542   0.1666109   0.0000000  )
        10           Au  tau(  10) = (   0.0000000   0.3332217   0.0000000  )
        11           Au  tau(  11) = (   0.3332217   0.3332217   0.0000000  )
        12           Au  tau(  12) = (   0.6664434   0.3332217   0.0000000  )
        13           Au  tau(  13) = (   0.1666109   0.4998326   0.0000000  )
        14           Au  tau(  14) = (   0.4998326   0.4998326   0.0000000  )
        15           Au  tau(  15) = (   0.8330542   0.4998326   0.0000000  )
        16           Au  tau(  16) = (   0.0000000   0.6664434   0.0000000  )
        17           Au  tau(  17) = (   0.3332217   0.6664434   0.0000000  )
        18           Au  tau(  18) = (   0.6664434   0.6664434   0.0000000  )
        19           Au  tau(  19) = (   0.1666109   0.8330542   0.0000000  )
        20           Au  tau(  20) = (   0.4998326   0.8330542   0.0000000  )
        21           Au  tau(  21) = (   0.8330542   0.8330542   0.0000000  )
        22           Au  tau(  22) = (   0.1666109   0.0000000   0.1666109  )
        23           Au  tau(  23) = (   0.4998326   0.0000000   0.1666109  )
        24           Au  tau(  24) = (   0.8330542   0.0000000   0.1666109  )
        25           Au  tau(  25) = (   0.0000000   0.1666109   0.1666109  )
        26           Au  tau(  26) = (   0.3332217   0.1666109   0.1666109  )
        27           Au  tau(  27) = (   0.6664434   0.1666109   0.1666109  )
        28           Au  tau(  28) = (   0.1666109   0.3332217   0.1666109  )
        29           Au  tau(  29) = (   0.4998326   0.3332217   0.1666109  )
        30           Au  tau(  30) = (   0.8330542   0.3332217   0.1666109  )
        31           Au  tau(  31) = (   0.0000000   0.4998326   0.1666109  )
        32           Au  tau(  32) = (   0.3332217   0.4998326   0.1666109  )
        33           Au  tau(  33) = (   0.6664434   0.4998326   0.1666109  )
        34           Au  tau(  34) = (   0.1666109   0.6664434   0.1666109  )
        35           Au  tau(  35) = (   0.4998326   0.6664434   0.1666109  )
        36           Au  tau(  36) = (   0.8330542   0.6664434   0.1666109  )
        37           Au  tau(  37) = (   0.0000000   0.8330542   0.1666109  )
        38           Au  tau(  38) = (   0.3332217   0.8330542   0.1666109  )
        39           Au  tau(  39) = (   0.6664434   0.8330542   0.1666109  )
        40           Au  tau(  40) = (  -0.0000182  -0.0000182   0.3335478  )
        41           Au  tau(  41) = (   0.3332215  -0.0000181   0.3335473  )
        42           Au  tau(  42) = (   0.6664447  -0.0000183   0.3335481  )
        43           Au  tau(  43) = (  -0.0000181   0.3332215   0.3335473  )
        44           Au  tau(  44) = (   0.3332215   0.3332215   0.3335468  )
        45           Au  tau(  45) = (   0.6664445   0.3332215   0.3335477  )
        46           Au  tau(  46) = (  -0.0000183   0.6664447   0.3335481  )
        47           Au  tau(  47) = (   0.3332215   0.6664445   0.3335477  )
        48           Au  tau(  48) = (   0.6664446   0.6664446   0.3335486  )
        49           Au  tau(  49) = (   0.1666097   0.1666097   0.3335483  )
        50           Au  tau(  50) = (   0.4998320   0.1666098   0.3335477  )
        51           Au  tau(  51) = (   0.8330732   0.1666096   0.3335480  )
        52           Au  tau(  52) = (   0.1666098   0.4998320   0.3335477  )
        53           Au  tau(  53) = (   0.4998322   0.4998322   0.3335470  )
        54           Au  tau(  54) = (   0.8330731   0.4998322   0.3335474  )
        55           Au  tau(  55) = (   0.1666096   0.8330732   0.3335480  )
        56           Au  tau(  56) = (   0.4998322   0.8330731   0.3335474  )
        57           Au  tau(  57) = (   0.8330731   0.8330731   0.3335478  )
        58           Au  tau(  58) = (   0.1666104  -0.0000111   0.4993095  )
        59           Au  tau(  59) = (   0.4998323  -0.0000112   0.4993099  )
        60           Au  tau(  60) = (   0.8330660  -0.0000111   0.4993009  )
        61           Au  tau(  61) = (  -0.0000111   0.1666104   0.4993095  )
        62           Au  tau(  62) = (   0.3332213   0.1666106   0.4993185  )
        63           Au  tau(  63) = (   0.6664437   0.1666106   0.4993187  )
        64           Au  tau(  64) = (   0.1666106   0.3332213   0.4993185  )
        65           Au  tau(  65) = (   0.4998324   0.3332216   0.4993185  )
        66           Au  tau(  66) = (   0.8330658   0.3332215   0.4993102  )
        67           Au  tau(  67) = (  -0.0000112   0.4998323   0.4993099  )
        68           Au  tau(  68) = (   0.3332216   0.4998324   0.4993185  )
        69           Au  tau(  69) = (   0.6664437   0.4998325   0.4993187  )
        70           Au  tau(  70) = (   0.1666106   0.6664437   0.4993187  )
        71           Au  tau(  71) = (   0.4998325   0.6664437   0.4993187  )
        72           Au  tau(  72) = (   0.8330658   0.6664438   0.4993102  )
        73           Au  tau(  73) = (  -0.0000111   0.8330660   0.4993009  )
        74           Au  tau(  74) = (   0.3332215   0.8330658   0.4993102  )
        75           Au  tau(  75) = (   0.6664438   0.8330658   0.4993102  )

     number of k points=     6  Marzari-Vanderbilt smearing, width (Ry)=  0.0200
                       cart. coord. in units 2pi/alat
        k(    1) = (   0.2500000   0.2500000   0.0833333), wk =   0.3333333
        k(    2) = (   0.2500000   0.2500000  -0.2500000), wk =   0.3333333
        k(    3) = (  -0.2500000  -0.2500000   0.0833333), wk =   0.3333333
        k(    4) = (  -0.2500000   0.2500000  -0.0833333), wk =   0.3333333
        k(    5) = (   0.2500000  -0.2500000  -0.0833333), wk =   0.3333333
        k(    6) = (  -0.2500000   0.2500000   0.2500000), wk =   0.3333333

     Dense  grid:  3792731 G-vectors     FFT dimensions: ( 160, 160, 320)

     Smooth grid:  1341081 G-vectors     FFT dimensions: ( 120, 120, 225)

     Largest allocated arrays     est. size (Mb)     dimensions
        Kohn-Sham Wavefunctions        38.58 Mb     (    5267,  480)
        NL pseudopotentials            76.03 Mb     (    5267,  946)
        Each V/rho on FFT grid          3.91 Mb     (  256000)
        Each G-vector array             0.90 Mb     (  118520)
        G-vector shells                 0.08 Mb     (   10286)
     Largest temporary arrays     est. size (Mb)     dimensions
        Auxiliary wavefunctions       154.31 Mb     (    5267, 1920)
        Each subspace H/S matrix       56.25 Mb     (    1920, 1920)
        Each <psi_i|beta_j> matrix      6.93 Mb     (     946,  480)
        Arrays for rho mixing          31.25 Mb     (  256000,    8)

     Initial potential from superposition of free atoms
     Check: negative starting charge=   -1.944775

     starting charge  799.16392, renormalised to  800.00000

     negative rho (up, down):  1.947E+00 0.000E+00
     Starting wfc are  654 randomized atomic wfcs

     total cpu time spent up to now is      146.9 secs

     Self-consistent Calculation

     iteration #  1     ecut=    50.00 Ry     beta=0.70
     Davidson diagonalization with overlap
     ethr =  1.00E-02,  avg # of iterations =  3.0

     Threshold (ethr) on eigenvalues was too large:
     Diagonalizing with lowered threshold

     Davidson diagonalization with overlap
     ethr =  5.01E-04,  avg # of iterations =  2.0

     negative rho (up, down):  1.932E+00 0.000E+00

     total cpu time spent up to now is      648.9 secs

     total energy              =   -7377.39563915 Ry
     Harris-Foulkes estimate   =   -7380.96393913 Ry
     estimated scf accuracy    <       4.52915316 Ry

     iteration #  2     ecut=    50.00 Ry     beta=0.70
     Davidson diagonalization with overlap
     ethr =  5.66E-04,  avg # of iterations = 11.3

     negative rho (up, down):  1.930E+00 0.000E+00

     total cpu time spent up to now is     1461.6 secs

     total energy              =   -7368.70042637 Ry
     Harris-Foulkes estimate   =   -7388.00440897 Ry
     estimated scf accuracy    <      99.49432297 Ry

     iteration #  3     ecut=    50.00 Ry     beta=0.70
     Davidson diagonalization with overlap
     ethr =  5.66E-04,  avg # of iterations =  6.0

     negative rho (up, down):  1.947E+00 0.000E+00

     total cpu time spent up to now is     1944.3 secs

     total energy              =   -7378.46564722 Ry
     Harris-Foulkes estimate   =   -7380.76641118 Ry
     estimated scf accuracy    <       9.36981316 Ry

     iteration #  4     ecut=    50.00 Ry     beta=0.70
     Davidson diagonalization with overlap
     ethr =  5.66E-04,  avg # of iterations =  6.5

     negative rho (up, down):  1.950E+00 0.000E+00

     total cpu time spent up to now is     2228.1 secs

     total energy              =   -7379.17120832 Ry
     Harris-Foulkes estimate   =   -7380.55505069 Ry
     estimated scf accuracy    <       8.23599785 Ry

     iteration #  5     ecut=    50.00 Ry     beta=0.70
     Davidson diagonalization with overlap
     ethr =  5.66E-04,  avg # of iterations =  6.5

     negative rho (up, down):  1.961E+00 0.000E+00

     total cpu time spent up to now is     2522.3 secs

     total energy              =   -7379.72628120 Ry
     Harris-Foulkes estimate   =   -7380.35557254 Ry
     estimated scf accuracy    <       4.93258751 Ry

     iteration #  6     ecut=    50.00 Ry     beta=0.70
     Davidson diagonalization with overlap
     ethr =  5.66E-04,  avg # of iterations =  2.5

     negative rho (up, down):  1.966E+00 0.000E+00

     total cpu time spent up to now is     2741.2 secs

     total energy              =   -7379.98345946 Ry
     Harris-Foulkes estimate   =   -7380.01510606 Ry
     estimated scf accuracy    <       0.09959257 Ry

     iteration #  7     ecut=    50.00 Ry     beta=0.70
     Davidson diagonalization with overlap
     ethr =  1.24E-05,  avg # of iterations = 11.3

     negative rho (up, down):  1.967E+00 0.000E+00

     total cpu time spent up to now is     3179.7 secs

     total energy              =   -7379.97384153 Ry
     Harris-Foulkes estimate   =   -7380.01309222 Ry
     estimated scf accuracy    <       0.20650892 Ry

     iteration #  8     ecut=    50.00 Ry     beta=0.70
     Davidson diagonalization with overlap
     ethr =  1.24E-05,  avg # of iterations =  3.2

     negative rho (up, down):  1.969E+00 0.000E+00

     total cpu time spent up to now is     3419.3 secs

     total energy              =   -7379.98092593 Ry
     Harris-Foulkes estimate   =   -7379.99718781 Ry
     estimated scf accuracy    <       0.06098740 Ry

     iteration #  9     ecut=    50.00 Ry     beta=0.70
     Davidson diagonalization with overlap
     c_bands:  1 eigenvalues not converged
     ethr =  7.62E-06,  avg # of iterations = 10.8

     negative rho (up, down):  1.969E+00 0.000E+00

     total cpu time spent up to now is     3735.6 secs

     total energy              =   -7379.97840656 Ry
     Harris-Foulkes estimate   =   -7379.98789981 Ry
     estimated scf accuracy    <       0.03136138 Ry

     iteration # 10     ecut=    50.00 Ry     beta=0.70
     Davidson diagonalization with overlap
     ethr =  3.92E-06,  avg # of iterations =  6.7

     negative rho (up, down):  1.971E+00 0.000E+00

     total cpu time spent up to now is     4022.8 secs

     total energy              =   -7379.97823251 Ry
     Harris-Foulkes estimate   =   -7379.98314045 Ry
     estimated scf accuracy    <       0.01456916 Ry

     iteration # 11     ecut=    50.00 Ry     beta=0.70
     Davidson diagonalization with overlap
     ethr =  1.82E-06,  avg # of iterations = 13.3

     negative rho (up, down):  1.971E+00 0.000E+00

     total cpu time spent up to now is     4389.2 secs

     total energy              =   -7379.97867552 Ry
     Harris-Foulkes estimate   =   -7379.98011863 Ry
     estimated scf accuracy    <       0.00523773 Ry

     iteration # 12     ecut=    50.00 Ry     beta=0.70
     Davidson diagonalization with overlap
     ethr =  6.55E-07,  avg # of iterations =  3.3

     negative rho (up, down):  1.972E+00 0.000E+00

     total cpu time spent up to now is     4622.8 secs

     total energy              =   -7379.97809639 Ry
     Harris-Foulkes estimate   =   -7379.97915094 Ry
     estimated scf accuracy    <       0.00147412 Ry

     iteration # 13     ecut=    50.00 Ry     beta=0.70
     Davidson diagonalization with overlap
     ethr =  1.84E-07,  avg # of iterations =  8.0

     negative rho (up, down):  1.971E+00 0.000E+00

     total cpu time spent up to now is     4919.2 secs

     total energy              =   -7379.97819891 Ry
     Harris-Foulkes estimate   =   -7379.97845378 Ry
     estimated scf accuracy    <       0.00067558 Ry

     iteration # 14     ecut=    50.00 Ry     beta=0.70
     Davidson diagonalization with overlap
     ethr =  8.44E-08,  avg # of iterations =  2.7

     negative rho (up, down):  1.971E+00 0.000E+00

     total cpu time spent up to now is     5165.5 secs

     total energy              =   -7379.97827364 Ry
     Harris-Foulkes estimate   =   -7379.97841345 Ry
     estimated scf accuracy    <       0.00058330 Ry

     iteration # 15     ecut=    50.00 Ry     beta=0.70
     Davidson diagonalization with overlap
     ethr =  7.29E-08,  avg # of iterations =  2.0

     negative rho (up, down):  1.971E+00 0.000E+00

     total cpu time spent up to now is     5393.8 secs

     total energy              =   -7379.97828523 Ry
     Harris-Foulkes estimate   =   -7379.97841420 Ry
     estimated scf accuracy    <       0.00064772 Ry

     iteration # 16     ecut=    50.00 Ry     beta=0.70
     Davidson diagonalization with overlap
     ethr =  7.29E-08,  avg # of iterations =  2.0

     negative rho (up, down):  1.971E+00 0.000E+00

     total cpu time spent up to now is     5627.4 secs

     total energy              =   -7379.97831836 Ry
     Harris-Foulkes estimate   =   -7379.97838700 Ry
     estimated scf accuracy    <       0.00050556 Ry

     iteration # 17     ecut=    50.00 Ry     beta=0.70
     Davidson diagonalization with overlap
     ethr =  6.32E-08,  avg # of iterations =  1.0

     negative rho (up, down):  1.971E+00 0.000E+00

     total cpu time spent up to now is     5849.3 secs

     total energy              =   -7379.97835036 Ry
     Harris-Foulkes estimate   =   -7379.97836253 Ry
     estimated scf accuracy    <       0.00005418 Ry

     iteration # 18     ecut=    50.00 Ry     beta=0.70
     Davidson diagonalization with overlap
     ethr =  6.77E-09,  avg # of iterations =  2.0

     negative rho (up, down):  1.971E+00 0.000E+00

     total cpu time spent up to now is     6077.9 secs

     total energy              =   -7379.97835250 Ry
     Harris-Foulkes estimate   =   -7379.97836125 Ry
     estimated scf accuracy    <       0.00004231 Ry

     iteration # 19     ecut=    50.00 Ry     beta=0.70
     Davidson diagonalization with overlap
     ethr =  5.29E-09,  avg # of iterations =  2.0

     negative rho (up, down):  1.971E+00 0.000E+00

     total cpu time spent up to now is     6302.7 secs

     total energy              =   -7379.97835644 Ry
     Harris-Foulkes estimate   =   -7379.97835838 Ry
     estimated scf accuracy    <       0.00000752 Ry

     iteration # 20     ecut=    50.00 Ry     beta=0.70
     Davidson diagonalization with overlap
     ethr =  9.40E-10,  avg # of iterations =  2.0

     negative rho (up, down):  1.971E+00 0.000E+00

     total cpu time spent up to now is     6532.8 secs

     total energy              =   -7379.97835735 Ry
     Harris-Foulkes estimate   =   -7379.97835771 Ry
     estimated scf accuracy    <       0.00000108 Ry

     iteration # 21     ecut=    50.00 Ry     beta=0.70
     Davidson diagonalization with overlap
     ethr =  1.35E-10,  avg # of iterations =  3.0

     negative rho (up, down):  1.971E+00 0.000E+00

     total cpu time spent up to now is     6812.8 secs

     total energy              =   -7379.97835749 Ry
     Harris-Foulkes estimate   =   -7379.97835769 Ry
     estimated scf accuracy    <       0.00000082 Ry

     iteration # 22     ecut=    50.00 Ry     beta=0.70
     Davidson diagonalization with overlap
     ethr =  1.03E-10,  avg # of iterations =  2.0

     negative rho (up, down):  1.971E+00 0.000E+00

     total cpu time spent up to now is     7039.3 secs

     total energy              =   -7379.97835755 Ry
     Harris-Foulkes estimate   =   -7379.97835764 Ry
     estimated scf accuracy    <       0.00000030 Ry

     iteration # 23     ecut=    50.00 Ry     beta=0.70
     Davidson diagonalization with overlap
     ethr =  3.69E-11,  avg # of iterations =  3.0

     negative rho (up, down):  1.971E+00 0.000E+00

     total cpu time spent up to now is     7286.2 secs

     total energy              =   -7379.97835759 Ry
     Harris-Foulkes estimate   =   -7379.97835762 Ry
     estimated scf accuracy    <       0.00000008 Ry

     iteration # 24     ecut=    50.00 Ry     beta=0.70
     Davidson diagonalization with overlap
     ethr =  9.58E-12,  avg # of iterations =  2.0

     negative rho (up, down):  1.971E+00 0.000E+00

     total cpu time spent up to now is     7525.8 secs

     total energy              =   -7379.97835760 Ry
     Harris-Foulkes estimate   =   -7379.97835761 Ry
     estimated scf accuracy    <       0.00000006 Ry

     iteration # 25     ecut=    50.00 Ry     beta=0.70
     Davidson diagonalization with overlap
     ethr =  8.08E-12,  avg # of iterations =  2.0

     negative rho (up, down):  1.971E+00 0.000E+00

     total cpu time spent up to now is     7723.4 secs

     total energy              =   -7379.97835761 Ry
     Harris-Foulkes estimate   =   -7379.97835761 Ry
     estimated scf accuracy    <       0.00000003 Ry

     iteration # 26     ecut=    50.00 Ry     beta=0.70
     Davidson diagonalization with overlap
     ethr =  3.69E-12,  avg # of iterations =  2.0

     negative rho (up, down):  1.971E+00 0.000E+00

     total cpu time spent up to now is     7943.1 secs

     total energy              =   -7379.97835761 Ry
     Harris-Foulkes estimate   =   -7379.97835761 Ry
     estimated scf accuracy    <       0.00000008 Ry

     iteration # 27     ecut=    50.00 Ry     beta=0.70
     Davidson diagonalization with overlap
     ethr =  3.69E-12,  avg # of iterations =  2.0

     negative rho (up, down):  1.971E+00 0.000E+00

     total cpu time spent up to now is     8170.8 secs

     total energy              =   -7379.97835761 Ry
     Harris-Foulkes estimate   =   -7379.97835761 Ry
     estimated scf accuracy    <       0.00000001 Ry

     iteration # 28     ecut=    50.00 Ry     beta=0.70
     Davidson diagonalization with overlap
     ethr =  1.69E-12,  avg # of iterations =  1.5

     negative rho (up, down):  1.971E+00 0.000E+00

     total cpu time spent up to now is     8387.5 secs

     End of self-consistent calculation

          k = 0.2500 0.2500 0.0833 (167653 PWs)   bands (ev):

   -19.0863  -6.9116  -6.8997  -6.3813  -6.3812  -5.9431  -5.5395  -5.4409
    -5.4408  -5.2191  -5.2191  -5.1221  -5.1219  -4.9885  -4.9810  -4.8715
    -4.7833  -4.7788  -4.7577  -4.7577  -4.5767  -4.5754  -4.5754  -4.5492
    -4.5446  -4.5440  -4.5398  -4.4869  -4.4867  -4.4841  -4.4841  -4.4204
    -4.3919  -4.3919  -4.3351  -4.3320  -4.3306  -4.2946  -4.2945  -4.2808
    -4.2759  -4.2573  -4.2573  -4.2206  -4.1879  -4.1877  -4.1844  -4.1817
    -4.1816  -4.1516  -4.1213  -4.1212  -4.0916  -4.0915  -4.0876  -4.0875
    -4.0858  -4.0790  -4.0471  -4.0469  -3.9869  -3.9868  -3.9545  -3.9289
    -3.9210  -3.9178  -3.9172  -3.8953  -3.8953  -3.8834  -3.8331  -3.8331
    -3.8272  -3.8272  -3.7416  -3.7415  -3.7195  -3.7193  -3.6848  -3.6835
    -3.6678  -3.6436  -3.6436  -3.5992  -3.5991  -3.5966  -3.5966  -3.5718
    -3.5717  -3.4916  -3.4911  -3.4905  -3.4743  -3.4603  -3.4570  -3.4444
    -3.4444  -3.4370  -3.4370  -3.3943  -3.3943  -3.3715  -3.3715  -3.3346
    -3.3345  -3.3083  -3.2873  -3.2872  -3.2410  -3.2410  -3.2084  -3.1808
    -3.1806  -3.1797  -3.1794  -3.1753  -3.1753  -3.1490  -3.1376  -3.1000
    -3.1000  -3.0949  -3.0789  -3.0553  -3.0523  -3.0523  -3.0455  -3.0454
    -3.0413  -3.0412  -3.0061  -3.0051  -3.0051  -2.9996  -2.9996  -2.9946
    -2.9388  -2.9343  -2.9296  -2.9294  -2.9074  -2.9073  -2.9020  -2.8134
    -2.8028  -2.8027  -2.7930  -2.7929  -2.7873  -2.7861  -2.7851  -2.7771
    -2.7770  -2.7664  -2.7590  -2.7556  -2.7555  -2.7512  -2.7409  -2.7361
    -2.7339  -2.7117  -2.7009  -2.7008  -2.6851  -2.6850  -2.6681  -2.6680
    -2.6591  -2.6591  -2.6385  -2.6257  -2.6257  -2.6204  -2.6204  -2.5865
    -2.5841  -2.5841  -2.5263  -2.5223  -2.5077  -2.5077  -2.4968  -2.4928
    -2.4696  -2.4695  -2.4653  -2.4525  -2.4524  -2.4408  -2.4407  -2.4240
    -2.4238  -2.3967  -2.3967  -2.3864  -2.3863  -2.3766  -2.3765  -2.3594
    -2.3463  -2.3257  -2.2570  -2.2551  -2.2360  -2.2359  -2.2240  -2.2240
    -2.1739  -2.1737  -2.1587  -2.1392  -2.1266  -2.1265  -2.1084  -2.0900
    -2.0899  -2.0767  -2.0699  -2.0400  -2.0397  -2.0361  -2.0270  -2.0270
    -2.0214  -2.0214  -2.0035  -1.9918  -1.9839  -1.9838  -1.9833  -1.9833
    -1.9821  -1.9819  -1.9681  -1.9481  -1.9480  -1.9446  -1.9393  -1.9265
    -1.9264  -1.9219  -1.9219  -1.9160  -1.9142  -1.8797  -1.8796  -1.8352
    -1.8160  -1.8158  -1.7701  -1.7700  -1.7699  -1.7592  -1.7590  -1.7452
    -1.7450  -1.7376  -1.7374  -1.7270  -1.7269  -1.7066  -1.7066  -1.6696
    -1.6695  -1.6521  -1.6299  -1.6298  -1.5904  -1.5903  -1.5396  -1.5396
    -1.5187  -1.4951  -1.4922  -1.4917  -1.4873  -1.4851  -1.4660  -1.4659
    -1.4649  -1.4648  -1.4629  -1.4627  -1.4619  -1.4608  -1.4597  -1.4326
    -1.4326  -1.3996  -1.3988  -1.3987  -1.3760  -1.3760  -1.3716  -1.3715
    -1.3684  -1.3579  -1.3301  -1.3300  -1.3056  -1.3042  -1.3042  -1.2841
    -1.2728  -1.2727  -1.2434  -1.2433  -1.2364  -1.2364  -1.1977  -1.1976
    -1.1857  -1.1856  -1.1849  -1.1848  -1.1584  -1.1584  -1.1443  -1.1369
    -1.1369  -1.1251  -1.1249  -1.1231  -1.1230  -1.1120  -1.1020  -1.1009
    -1.0943  -1.0943  -1.0874  -1.0833  -1.0833  -1.0670  -1.0545  -1.0249
    -1.0232  -1.0228  -1.0220  -1.0194  -1.0156  -0.9882  -0.9881  -0.9744
    -0.9567  -0.9565  -0.9482  -0.9482  -0.9399  -0.9337  -0.9305  -0.8950
    -0.8949  -0.8835  -0.8835  -0.8632  -0.8632  -0.8477  -0.8236  -0.8155
    -0.7977  -0.7976  -0.7600  -0.7598  -0.7572  -0.7566  -0.7555  -0.7505
    -0.7489  -0.7488  -0.7442  -0.7422  -0.7090  -0.7090  -0.7079  -0.7078
    -0.7059  -0.7057  -0.6920  -0.6920  -0.6637  -0.4038  -0.3929  -0.3494
    -0.3489  -0.3182  -0.2593  -0.1069  -0.1068  -0.0761   0.2086   0.2087
     0.5494   0.5499   0.5931   0.5932   0.6431   0.6434   0.8028   0.8030
     0.9306   0.9328   1.0462   1.5417   1.5819   1.5897   1.6245   1.6252
     1.7618   1.7635   1.8183   1.8185   2.0010   2.0010   2.2861   2.3129
     2.3134   2.3340   2.7684   2.7700   2.7925   2.7927   2.8089   2.8091
     2.8745   2.8754   3.0317   3.1531   3.1537   3.3424   3.3440   3.4497
     3.5217   3.5218   3.8214   3.8218   3.8784   3.8799   3.8799   4.0268
     4.0272   4.0398   4.0511   4.3224   4.3244   4.3605   4.3606   4.4756
     4.4781   4.5408   4.5429   4.8118   5.1221   5.4240   5.4247   5.5051
     5.5205   5.6312   5.6314   5.7028   5.7037   5.7203   5.7204   5.8224
     5.8327   5.9118   6.0610   6.0850   6.1197   6.1205   6.1296   6.1342
     6.1346   6.1488   6.3032   6.3086   6.3515   6.3890   6.4364   6.4477

          k = 0.2500 0.2500-0.2500 (167588 PWs)   bands (ev):

   -19.0863  -6.9116  -6.8997  -6.3813  -6.3812  -5.9431  -5.5395  -5.4409
    -5.4408  -5.2191  -5.2191  -5.1221  -5.1219  -4.9886  -4.9810  -4.8715
    -4.7833  -4.7788  -4.7577  -4.7577  -4.5767  -4.5754  -4.5754  -4.5493
    -4.5446  -4.5440  -4.5398  -4.4869  -4.4867  -4.4841  -4.4841  -4.4204
    -4.3919  -4.3919  -4.3351  -4.3320  -4.3306  -4.2946  -4.2945  -4.2808
    -4.2759  -4.2573  -4.2573  -4.2207  -4.1879  -4.1877  -4.1844  -4.1817
    -4.1816  -4.1516  -4.1213  -4.1212  -4.0916  -4.0915  -4.0876  -4.0875
    -4.0858  -4.0790  -4.0471  -4.0469  -3.9869  -3.9868  -3.9545  -3.9289
    -3.9210  -3.9178  -3.9172  -3.8953  -3.8953  -3.8834  -3.8331  -3.8331
    -3.8272  -3.8272  -3.7416  -3.7415  -3.7195  -3.7194  -3.6848  -3.6835
    -3.6678  -3.6436  -3.6436  -3.5992  -3.5991  -3.5966  -3.5966  -3.5718
    -3.5717  -3.4916  -3.4911  -3.4905  -3.4743  -3.4603  -3.4570  -3.4444
    -3.4444  -3.4370  -3.4370  -3.3943  -3.3943  -3.3715  -3.3715  -3.3346
    -3.3345  -3.3083  -3.2873  -3.2872  -3.2410  -3.2409  -3.2084  -3.1808
    -3.1806  -3.1797  -3.1794  -3.1753  -3.1753  -3.1490  -3.1377  -3.1000
    -3.1000  -3.0949  -3.0789  -3.0553  -3.0523  -3.0523  -3.0455  -3.0454
    -3.0413  -3.0412  -3.0061  -3.0051  -3.0051  -2.9996  -2.9996  -2.9945
    -2.9388  -2.9343  -2.9296  -2.9294  -2.9074  -2.9073  -2.9020  -2.8134
    -2.8028  -2.8027  -2.7930  -2.7929  -2.7873  -2.7861  -2.7851  -2.7771
    -2.7770  -2.7664  -2.7590  -2.7556  -2.7555  -2.7512  -2.7409  -2.7361
    -2.7339  -2.7117  -2.7009  -2.7008  -2.6851  -2.6850  -2.6681  -2.6680
    -2.6591  -2.6591  -2.6386  -2.6257  -2.6257  -2.6204  -2.6203  -2.5865
    -2.5841  -2.5841  -2.5263  -2.5223  -2.5077  -2.5077  -2.4968  -2.4928
    -2.4696  -2.4695  -2.4653  -2.4525  -2.4524  -2.4408  -2.4407  -2.4240
    -2.4238  -2.3967  -2.3967  -2.3864  -2.3864  -2.3766  -2.3765  -2.3594
    -2.3463  -2.3257  -2.2570  -2.2551  -2.2360  -2.2359  -2.2240  -2.2240
    -2.1739  -2.1737  -2.1587  -2.1392  -2.1266  -2.1265  -2.1084  -2.0900
    -2.0899  -2.0767  -2.0699  -2.0400  -2.0397  -2.0361  -2.0270  -2.0270
    -2.0214  -2.0214  -2.0035  -1.9919  -1.9839  -1.9838  -1.9833  -1.9833
    -1.9821  -1.9819  -1.9681  -1.9481  -1.9480  -1.9446  -1.9393  -1.9265
    -1.9264  -1.9220  -1.9219  -1.9160  -1.9142  -1.8797  -1.8796  -1.8353
    -1.8160  -1.8158  -1.7701  -1.7700  -1.7699  -1.7592  -1.7590  -1.7452
    -1.7450  -1.7376  -1.7374  -1.7270  -1.7269  -1.7066  -1.7066  -1.6696
    -1.6695  -1.6521  -1.6299  -1.6298  -1.5904  -1.5903  -1.5396  -1.5396
    -1.5187  -1.4951  -1.4922  -1.4917  -1.4873  -1.4851  -1.4660  -1.4659
    -1.4649  -1.4648  -1.4629  -1.4627  -1.4619  -1.4609  -1.4596  -1.4326
    -1.4326  -1.3996  -1.3988  -1.3987  -1.3760  -1.3760  -1.3715  -1.3715
    -1.3684  -1.3579  -1.3301  -1.3300  -1.3056  -1.3042  -1.3042  -1.2841
    -1.2728  -1.2727  -1.2434  -1.2433  -1.2364  -1.2364  -1.1977  -1.1976
    -1.1857  -1.1856  -1.1849  -1.1848  -1.1584  -1.1584  -1.1443  -1.1369
    -1.1369  -1.1251  -1.1249  -1.1231  -1.1230  -1.1120  -1.1020  -1.1009
    -1.0943  -1.0942  -1.0874  -1.0833  -1.0833  -1.0670  -1.0545  -1.0249
    -1.0232  -1.0228  -1.0220  -1.0194  -1.0156  -0.9882  -0.9881  -0.9744
    -0.9567  -0.9565  -0.9482  -0.9482  -0.9399  -0.9337  -0.9305  -0.8950
    -0.8949  -0.8835  -0.8835  -0.8632  -0.8632  -0.8477  -0.8236  -0.8155
    -0.7977  -0.7976  -0.7600  -0.7598  -0.7572  -0.7566  -0.7555  -0.7505
    -0.7489  -0.7488  -0.7442  -0.7422  -0.7090  -0.7090  -0.7079  -0.7078
    -0.7059  -0.7057  -0.6920  -0.6920  -0.6637  -0.4038  -0.3929  -0.3494
    -0.3489  -0.3182  -0.2593  -0.1069  -0.1068  -0.0761   0.2086   0.2087
     0.5493   0.5499   0.5931   0.5932   0.6431   0.6434   0.8028   0.8030
     0.9306   0.9328   1.0462   1.5417   1.5819   1.5897   1.6245   1.6252
     1.7618   1.7635   1.8183   1.8185   2.0010   2.0010   2.2861   2.3129
     2.3134   2.3340   2.7684   2.7700   2.7925   2.7927   2.8089   2.8091
     2.8745   2.8754   3.0318   3.1531   3.1537   3.3424   3.3440   3.4497
     3.5217   3.5218   3.8214   3.8218   3.8783   3.8799   3.8799   4.0268
     4.0272   4.0398   4.0512   4.3224   4.3244   4.3605   4.3606   4.4756
     4.4781   4.5408   4.5429   4.8119   5.1197   5.4240   5.4247   5.5052
     5.5198   5.6312   5.6314   5.7028   5.7036   5.7203   5.7204   5.8173
     5.8326   5.8957   6.0552   6.1194   6.1204   6.1293   6.1341   6.1346
     6.1482   6.1549   6.3005   6.3080   6.3917   6.4192   6.4373   6.4713

          k =-0.2500-0.2500 0.0833 (167653 PWs)   bands (ev):

   -19.0863  -6.9116  -6.8997  -6.3813  -6.3812  -5.9431  -5.5395  -5.4409
    -5.4408  -5.2191  -5.2191  -5.1221  -5.1219  -4.9885  -4.9810  -4.8715
    -4.7833  -4.7788  -4.7577  -4.7577  -4.5767  -4.5754  -4.5754  -4.5492
    -4.5446  -4.5440  -4.5398  -4.4869  -4.4867  -4.4841  -4.4841  -4.4204
    -4.3919  -4.3919  -4.3351  -4.3320  -4.3306  -4.2946  -4.2945  -4.2808
    -4.2759  -4.2573  -4.2573  -4.2206  -4.1879  -4.1877  -4.1844  -4.1817
    -4.1816  -4.1516  -4.1213  -4.1212  -4.0916  -4.0915  -4.0876  -4.0875
    -4.0858  -4.0790  -4.0471  -4.0469  -3.9869  -3.9868  -3.9545  -3.9289
    -3.9210  -3.9178  -3.9172  -3.8953  -3.8953  -3.8834  -3.8331  -3.8331
    -3.8272  -3.8272  -3.7416  -3.7415  -3.7195  -3.7193  -3.6848  -3.6835
    -3.6678  -3.6436  -3.6436  -3.5992  -3.5991  -3.5966  -3.5966  -3.5718
    -3.5717  -3.4916  -3.4911  -3.4905  -3.4743  -3.4603  -3.4570  -3.4444
    -3.4444  -3.4370  -3.4370  -3.3943  -3.3943  -3.3715  -3.3715  -3.3346
    -3.3345  -3.3083  -3.2873  -3.2872  -3.2410  -3.2410  -3.2084  -3.1808
    -3.1806  -3.1797  -3.1794  -3.1753  -3.1753  -3.1490  -3.1376  -3.1000
    -3.1000  -3.0949  -3.0789  -3.0553  -3.0523  -3.0523  -3.0455  -3.0454
    -3.0413  -3.0412  -3.0061  -3.0051  -3.0051  -2.9996  -2.9996  -2.9946
    -2.9388  -2.9343  -2.9296  -2.9294  -2.9074  -2.9073  -2.9020  -2.8134
    -2.8028  -2.8027  -2.7930  -2.7929  -2.7873  -2.7861  -2.7851  -2.7771
    -2.7770  -2.7664  -2.7590  -2.7556  -2.7555  -2.7512  -2.7409  -2.7361
    -2.7339  -2.7117  -2.7009  -2.7008  -2.6851  -2.6850  -2.6681  -2.6680
    -2.6591  -2.6591  -2.6385  -2.6257  -2.6257  -2.6204  -2.6204  -2.5865
    -2.5841  -2.5841  -2.5263  -2.5223  -2.5077  -2.5077  -2.4968  -2.4928
    -2.4696  -2.4695  -2.4653  -2.4525  -2.4524  -2.4408  -2.4407  -2.4240
    -2.4238  -2.3967  -2.3967  -2.3864  -2.3863  -2.3766  -2.3765  -2.3594
    -2.3463  -2.3257  -2.2570  -2.2551  -2.2360  -2.2359  -2.2240  -2.2240
    -2.1739  -2.1737  -2.1587  -2.1392  -2.1266  -2.1265  -2.1084  -2.0900
    -2.0899  -2.0767  -2.0699  -2.0400  -2.0397  -2.0361  -2.0270  -2.0270
    -2.0214  -2.0214  -2.0035  -1.9918  -1.9839  -1.9838  -1.9833  -1.9833
    -1.9821  -1.9819  -1.9681  -1.9481  -1.9480  -1.9446  -1.9393  -1.9265
    -1.9264  -1.9219  -1.9219  -1.9160  -1.9142  -1.8797  -1.8796  -1.8352
    -1.8160  -1.8158  -1.7701  -1.7700  -1.7699  -1.7592  -1.7590  -1.7452
    -1.7450  -1.7376  -1.7374  -1.7270  -1.7269  -1.7066  -1.7066  -1.6696
    -1.6695  -1.6521  -1.6299  -1.6298  -1.5904  -1.5903  -1.5396  -1.5396
    -1.5187  -1.4951  -1.4922  -1.4917  -1.4873  -1.4851  -1.4660  -1.4659
    -1.4649  -1.4648  -1.4629  -1.4627  -1.4619  -1.4608  -1.4597  -1.4326
    -1.4326  -1.3996  -1.3988  -1.3987  -1.3760  -1.3760  -1.3716  -1.3715
    -1.3684  -1.3579  -1.3301  -1.3300  -1.3056  -1.3042  -1.3042  -1.2841
    -1.2728  -1.2727  -1.2434  -1.2433  -1.2364  -1.2364  -1.1977  -1.1976
    -1.1857  -1.1856  -1.1849  -1.1848  -1.1584  -1.1584  -1.1443  -1.1369
    -1.1369  -1.1251  -1.1249  -1.1231  -1.1230  -1.1120  -1.1020  -1.1009
    -1.0943  -1.0943  -1.0874  -1.0833  -1.0833  -1.0670  -1.0545  -1.0249
    -1.0232  -1.0228  -1.0220  -1.0194  -1.0156  -0.9882  -0.9881  -0.9744
    -0.9567  -0.9565  -0.9482  -0.9482  -0.9399  -0.9337  -0.9305  -0.8950
    -0.8949  -0.8835  -0.8835  -0.8632  -0.8632  -0.8477  -0.8236  -0.8155
    -0.7977  -0.7976  -0.7600  -0.7598  -0.7572  -0.7566  -0.7555  -0.7505
    -0.7489  -0.7488  -0.7442  -0.7422  -0.7090  -0.7090  -0.7079  -0.7078
    -0.7059  -0.7057  -0.6920  -0.6920  -0.6637  -0.4038  -0.3929  -0.3494
    -0.3489  -0.3182  -0.2593  -0.1069  -0.1068  -0.0761   0.2086   0.2087
     0.5494   0.5499   0.5931   0.5932   0.6431   0.6434   0.8028   0.8030
     0.9306   0.9328   1.0462   1.5417   1.5819   1.5897   1.6245   1.6252
     1.7618   1.7635   1.8183   1.8185   2.0010   2.0010   2.2861   2.3129
     2.3134   2.3340   2.7684   2.7700   2.7925   2.7927   2.8089   2.8091
     2.8745   2.8754   3.0317   3.1531   3.1537   3.3424   3.3440   3.4497
     3.5217   3.5218   3.8214   3.8218   3.8784   3.8799   3.8799   4.0268
     4.0272   4.0398   4.0511   4.3224   4.3244   4.3605   4.3606   4.4756
     4.4781   4.5408   4.5429   4.8118   5.1221   5.4240   5.4247   5.5051
     5.5205   5.6312   5.6314   5.7028   5.7037   5.7203   5.7204   5.8224
     5.8327   5.9119   6.0605   6.0854   6.1197   6.1205   6.1296   6.1342
     6.1346   6.1488   6.3031   6.3086   6.3516   6.3890   6.4364   6.4478

          k =-0.2500 0.2500-0.0833 (167653 PWs)   bands (ev):

   -19.0863  -6.9116  -6.8997  -6.3814  -6.3811  -5.9431  -5.5395  -5.4410
    -5.4407  -5.2191  -5.2191  -5.1223  -5.1217  -4.9885  -4.9810  -4.8715
    -4.7833  -4.7788  -4.7577  -4.7577  -4.5767  -4.5755  -4.5753  -4.5492
    -4.5446  -4.5440  -4.5398  -4.4870  -4.4866  -4.4842  -4.4840  -4.4204
    -4.3920  -4.3919  -4.3351  -4.3320  -4.3306  -4.2947  -4.2944  -4.2808
    -4.2759  -4.2573  -4.2573  -4.2206  -4.1878  -4.1878  -4.1844  -4.1817
    -4.1816  -4.1516  -4.1213  -4.1211  -4.0916  -4.0915  -4.0876  -4.0875
    -4.0858  -4.0790  -4.0472  -4.0468  -3.9870  -3.9866  -3.9545  -3.9288
    -3.9210  -3.9178  -3.9172  -3.8953  -3.8952  -3.8834  -3.8331  -3.8331
    -3.8273  -3.8271  -3.7417  -3.7414  -3.7196  -3.7192  -3.6848  -3.6835
    -3.6678  -3.6436  -3.6436  -3.5993  -3.5990  -3.5967  -3.5965  -3.5719
    -3.5716  -3.4916  -3.4912  -3.4905  -3.4743  -3.4603  -3.4570  -3.4445
    -3.4443  -3.4370  -3.4369  -3.3943  -3.3943  -3.3716  -3.3714  -3.3346
    -3.3344  -3.3083  -3.2873  -3.2872  -3.2410  -3.2409  -3.2084  -3.1808
    -3.1805  -3.1798  -3.1794  -3.1754  -3.1753  -3.1490  -3.1376  -3.1000
    -3.1000  -3.0949  -3.0789  -3.0553  -3.0524  -3.0522  -3.0456  -3.0454
    -3.0413  -3.0412  -3.0061  -3.0051  -3.0051  -2.9996  -2.9995  -2.9946
    -2.9388  -2.9343  -2.9296  -2.9294  -2.9074  -2.9073  -2.9020  -2.8134
    -2.8028  -2.8026  -2.7931  -2.7929  -2.7873  -2.7860  -2.7851  -2.7771
    -2.7770  -2.7664  -2.7590  -2.7557  -2.7554  -2.7512  -2.7409  -2.7361
    -2.7339  -2.7117  -2.7010  -2.7007  -2.6851  -2.6850  -2.6681  -2.6680
    -2.6592  -2.6590  -2.6386  -2.6257  -2.6257  -2.6204  -2.6203  -2.5865
    -2.5841  -2.5841  -2.5263  -2.5223  -2.5077  -2.5076  -2.4968  -2.4928
    -2.4696  -2.4694  -2.4653  -2.4526  -2.4523  -2.4410  -2.4405  -2.4242
    -2.4237  -2.3967  -2.3967  -2.3865  -2.3863  -2.3766  -2.3765  -2.3594
    -2.3463  -2.3257  -2.2570  -2.2551  -2.2361  -2.2359  -2.2241  -2.2239
    -2.1740  -2.1736  -2.1587  -2.1392  -2.1266  -2.1265  -2.1084  -2.0900
    -2.0899  -2.0767  -2.0699  -2.0402  -2.0395  -2.0361  -2.0270  -2.0270
    -2.0215  -2.0213  -2.0035  -1.9919  -1.9839  -1.9837  -1.9834  -1.9832
    -1.9823  -1.9818  -1.9681  -1.9481  -1.9480  -1.9446  -1.9393  -1.9266
    -1.9263  -1.9220  -1.9218  -1.9160  -1.9142  -1.8799  -1.8794  -1.8352
    -1.8160  -1.8158  -1.7701  -1.7700  -1.7699  -1.7593  -1.7589  -1.7453
    -1.7449  -1.7377  -1.7373  -1.7271  -1.7268  -1.7066  -1.7065  -1.6697
    -1.6695  -1.6521  -1.6300  -1.6297  -1.5904  -1.5902  -1.5397  -1.5396
    -1.5187  -1.4951  -1.4923  -1.4917  -1.4873  -1.4851  -1.4662  -1.4658
    -1.4650  -1.4646  -1.4630  -1.4626  -1.4619  -1.4608  -1.4597  -1.4326
    -1.4326  -1.3997  -1.3987  -1.3987  -1.3761  -1.3760  -1.3717  -1.3714
    -1.3684  -1.3579  -1.3302  -1.3299  -1.3057  -1.3044  -1.3040  -1.2841
    -1.2729  -1.2725  -1.2434  -1.2432  -1.2365  -1.2363  -1.1978  -1.1974
    -1.1857  -1.1855  -1.1849  -1.1847  -1.1585  -1.1583  -1.1443  -1.1370
    -1.1368  -1.1252  -1.1248  -1.1232  -1.1229  -1.1120  -1.1020  -1.1009
    -1.0943  -1.0942  -1.0874  -1.0834  -1.0832  -1.0670  -1.0545  -1.0248
    -1.0232  -1.0228  -1.0220  -1.0194  -1.0156  -0.9882  -0.9881  -0.9744
    -0.9569  -0.9564  -0.9483  -0.9482  -0.9399  -0.9337  -0.9305  -0.8951
    -0.8948  -0.8835  -0.8835  -0.8632  -0.8631  -0.8477  -0.8236  -0.8155
    -0.7978  -0.7975  -0.7600  -0.7599  -0.7572  -0.7566  -0.7555  -0.7505
    -0.7489  -0.7487  -0.7442  -0.7422  -0.7091  -0.7089  -0.7080  -0.7076
    -0.7060  -0.7056  -0.6921  -0.6919  -0.6637  -0.4038  -0.3929  -0.3499
    -0.3485  -0.3182  -0.2593  -0.1070  -0.1067  -0.0761   0.2085   0.2087
     0.5489   0.5503   0.5931   0.5932   0.6429   0.6436   0.8025   0.8032
     0.9306   0.9328   1.0462   1.5417   1.5819   1.5897   1.6245   1.6252
     1.7607   1.7646   1.8181   1.8187   2.0009   2.0011   2.2861   2.3124
     2.3139   2.3340   2.7675   2.7709   2.7925   2.7927   2.8088   2.8092
     2.8745   2.8754   3.0317   3.1524   3.1543   3.3423   3.3440   3.4497
     3.5215   3.5220   3.8209   3.8222   3.8783   3.8799   3.8801   4.0265
     4.0274   4.0364   4.0541   4.3224   4.3244   4.3601   4.3608   4.4756
     4.4780   4.5403   4.5439   4.8158   5.1183   5.4249   5.4255   5.5092
     5.5112   5.6308   5.6318   5.7033   5.7034   5.7201   5.7206   5.8126
     5.8324   5.9021   6.0213   6.1188   6.1209   6.1300   6.1342   6.1346
     6.1472   6.1801   6.3010   6.3115   6.3483   6.4054   6.4227   6.4512

          k = 0.2500-0.2500-0.0833 (167653 PWs)   bands (ev):

   -19.0863  -6.9116  -6.8997  -6.3814  -6.3811  -5.9431  -5.5395  -5.4410
    -5.4407  -5.2191  -5.2191  -5.1223  -5.1217  -4.9885  -4.9810  -4.8715
    -4.7833  -4.7788  -4.7577  -4.7577  -4.5767  -4.5755  -4.5753  -4.5492
    -4.5446  -4.5440  -4.5398  -4.4870  -4.4866  -4.4842  -4.4840  -4.4204
    -4.3920  -4.3919  -4.3351  -4.3320  -4.3306  -4.2947  -4.2944  -4.2808
    -4.2759  -4.2573  -4.2573  -4.2206  -4.1878  -4.1878  -4.1844  -4.1817
    -4.1816  -4.1516  -4.1213  -4.1211  -4.0916  -4.0915  -4.0876  -4.0875
    -4.0858  -4.0790  -4.0472  -4.0468  -3.9870  -3.9866  -3.9545  -3.9288
    -3.9210  -3.9178  -3.9172  -3.8953  -3.8952  -3.8834  -3.8331  -3.8331
    -3.8273  -3.8271  -3.7417  -3.7414  -3.7196  -3.7192  -3.6848  -3.6835
    -3.6678  -3.6436  -3.6436  -3.5993  -3.5990  -3.5967  -3.5965  -3.5719
    -3.5716  -3.4916  -3.4912  -3.4905  -3.4743  -3.4603  -3.4570  -3.4445
    -3.4443  -3.4370  -3.4369  -3.3943  -3.3943  -3.3716  -3.3714  -3.3346
    -3.3344  -3.3083  -3.2873  -3.2872  -3.2410  -3.2409  -3.2084  -3.1808
    -3.1805  -3.1798  -3.1794  -3.1754  -3.1753  -3.1490  -3.1376  -3.1000
    -3.1000  -3.0949  -3.0789  -3.0553  -3.0524  -3.0522  -3.0456  -3.0454
    -3.0413  -3.0412  -3.0061  -3.0051  -3.0051  -2.9996  -2.9995  -2.9946
    -2.9388  -2.9343  -2.9296  -2.9294  -2.9074  -2.9073  -2.9020  -2.8134
    -2.8028  -2.8026  -2.7931  -2.7929  -2.7873  -2.7860  -2.7851  -2.7771
    -2.7770  -2.7664  -2.7590  -2.7557  -2.7554  -2.7512  -2.7409  -2.7361
    -2.7339  -2.7117  -2.7010  -2.7007  -2.6851  -2.6850  -2.6681  -2.6680
    -2.6592  -2.6590  -2.6386  -2.6257  -2.6257  -2.6204  -2.6203  -2.5865
    -2.5841  -2.5841  -2.5263  -2.5223  -2.5077  -2.5076  -2.4968  -2.4928
    -2.4696  -2.4694  -2.4653  -2.4526  -2.4523  -2.4410  -2.4405  -2.4242
    -2.4237  -2.3967  -2.3967  -2.3865  -2.3863  -2.3766  -2.3765  -2.3594
    -2.3463  -2.3257  -2.2570  -2.2551  -2.2361  -2.2359  -2.2241  -2.2239
    -2.1740  -2.1736  -2.1587  -2.1392  -2.1266  -2.1265  -2.1084  -2.0900
    -2.0899  -2.0767  -2.0699  -2.0402  -2.0395  -2.0361  -2.0270  -2.0270
    -2.0215  -2.0213  -2.0035  -1.9919  -1.9839  -1.9837  -1.9834  -1.9832
    -1.9823  -1.9818  -1.9681  -1.9481  -1.9480  -1.9446  -1.9393  -1.9266
    -1.9263  -1.9220  -1.9218  -1.9160  -1.9142  -1.8799  -1.8794  -1.8352
    -1.8160  -1.8158  -1.7701  -1.7700  -1.7699  -1.7593  -1.7589  -1.7453
    -1.7449  -1.7377  -1.7373  -1.7271  -1.7268  -1.7066  -1.7065  -1.6697
    -1.6695  -1.6521  -1.6300  -1.6297  -1.5904  -1.5902  -1.5397  -1.5396
    -1.5187  -1.4951  -1.4923  -1.4917  -1.4873  -1.4851  -1.4662  -1.4658
    -1.4650  -1.4646  -1.4630  -1.4626  -1.4619  -1.4608  -1.4597  -1.4326
    -1.4326  -1.3997  -1.3987  -1.3987  -1.3761  -1.3760  -1.3717  -1.3714
    -1.3684  -1.3579  -1.3302  -1.3299  -1.3057  -1.3044  -1.3040  -1.2841
    -1.2729  -1.2725  -1.2434  -1.2432  -1.2365  -1.2363  -1.1978  -1.1974
    -1.1857  -1.1855  -1.1849  -1.1847  -1.1585  -1.1583  -1.1443  -1.1370
    -1.1368  -1.1252  -1.1248  -1.1232  -1.1229  -1.1120  -1.1020  -1.1009
    -1.0943  -1.0942  -1.0874  -1.0834  -1.0832  -1.0670  -1.0545  -1.0248
    -1.0232  -1.0228  -1.0220  -1.0194  -1.0156  -0.9882  -0.9881  -0.9744
    -0.9569  -0.9564  -0.9483  -0.9482  -0.9399  -0.9337  -0.9305  -0.8951
    -0.8948  -0.8835  -0.8835  -0.8632  -0.8631  -0.8477  -0.8236  -0.8155
    -0.7978  -0.7975  -0.7600  -0.7599  -0.7572  -0.7566  -0.7555  -0.7505
    -0.7489  -0.7487  -0.7442  -0.7422  -0.7091  -0.7089  -0.7080  -0.7076
    -0.7060  -0.7056  -0.6921  -0.6919  -0.6637  -0.4038  -0.3929  -0.3499
    -0.3485  -0.3182  -0.2593  -0.1070  -0.1067  -0.0761   0.2085   0.2087
     0.5489   0.5503   0.5931   0.5932   0.6429   0.6436   0.8025   0.8032
     0.9306   0.9328   1.0462   1.5417   1.5819   1.5897   1.6245   1.6252
     1.7607   1.7646   1.8181   1.8187   2.0009   2.0011   2.2861   2.3124
     2.3139   2.3340   2.7675   2.7709   2.7925   2.7927   2.8088   2.8092
     2.8745   2.8754   3.0317   3.1524   3.1543   3.3423   3.3440   3.4497
     3.5215   3.5220   3.8209   3.8222   3.8783   3.8799   3.8801   4.0265
     4.0274   4.0364   4.0541   4.3224   4.3244   4.3601   4.3608   4.4756
     4.4780   4.5403   4.5439   4.8158   5.1183   5.4249   5.4255   5.5092
     5.5112   5.6308   5.6318   5.7033   5.7034   5.7201   5.7206   5.8127
     5.8324   5.9028   6.0200   6.1188   6.1209   6.1300   6.1342   6.1346
     6.1472   6.1801   6.3010   6.3115   6.3488   6.4059   6.4227   6.4513

          k =-0.2500 0.2500 0.2500 (167588 PWs)   bands (ev):

   -19.0863  -6.9116  -6.8996  -6.3814  -6.3811  -5.9431  -5.5395  -5.4410
    -5.4407  -5.2191  -5.2191  -5.1223  -5.1217  -4.9885  -4.9810  -4.8715
    -4.7833  -4.7788  -4.7577  -4.7577  -4.5767  -4.5755  -4.5753  -4.5493
    -4.5446  -4.5440  -4.5398  -4.4870  -4.4866  -4.4842  -4.4840  -4.4204
    -4.3920  -4.3919  -4.3351  -4.3320  -4.3306  -4.2947  -4.2944  -4.2808
    -4.2759  -4.2573  -4.2573  -4.2206  -4.1878  -4.1878  -4.1844  -4.1817
    -4.1816  -4.1516  -4.1213  -4.1211  -4.0916  -4.0915  -4.0876  -4.0875
    -4.0858  -4.0790  -4.0472  -4.0468  -3.9870  -3.9866  -3.9545  -3.9288
    -3.9210  -3.9178  -3.9172  -3.8953  -3.8952  -3.8834  -3.8331  -3.8331
    -3.8273  -3.8271  -3.7417  -3.7414  -3.7196  -3.7192  -3.6848  -3.6835
    -3.6678  -3.6436  -3.6436  -3.5993  -3.5990  -3.5967  -3.5965  -3.5719
    -3.5716  -3.4916  -3.4912  -3.4905  -3.4743  -3.4603  -3.4570  -3.4445
    -3.4443  -3.4370  -3.4369  -3.3943  -3.3943  -3.3716  -3.3714  -3.3346
    -3.3344  -3.3083  -3.2873  -3.2872  -3.2410  -3.2409  -3.2084  -3.1808
    -3.1805  -3.1798  -3.1794  -3.1754  -3.1753  -3.1490  -3.1377  -3.1000
    -3.1000  -3.0949  -3.0789  -3.0553  -3.0524  -3.0522  -3.0456  -3.0454
    -3.0413  -3.0412  -3.0061  -3.0051  -3.0051  -2.9996  -2.9995  -2.9945
    -2.9388  -2.9343  -2.9296  -2.9294  -2.9074  -2.9073  -2.9020  -2.8134
    -2.8028  -2.8026  -2.7931  -2.7929  -2.7873  -2.7860  -2.7851  -2.7771
    -2.7770  -2.7664  -2.7590  -2.7556  -2.7554  -2.7512  -2.7409  -2.7361
    -2.7339  -2.7117  -2.7010  -2.7007  -2.6851  -2.6850  -2.6681  -2.6680
    -2.6592  -2.6590  -2.6386  -2.6257  -2.6257  -2.6204  -2.6203  -2.5865
    -2.5841  -2.5841  -2.5263  -2.5223  -2.5077  -2.5076  -2.4968  -2.4928
    -2.4696  -2.4694  -2.4653  -2.4525  -2.4523  -2.4410  -2.4405  -2.4242
    -2.4237  -2.3967  -2.3967  -2.3865  -2.3863  -2.3766  -2.3765  -2.3594
    -2.3463  -2.3257  -2.2570  -2.2551  -2.2361  -2.2359  -2.2241  -2.2240
    -2.1740  -2.1735  -2.1587  -2.1392  -2.1266  -2.1265  -2.1084  -2.0900
    -2.0899  -2.0767  -2.0699  -2.0402  -2.0395  -2.0361  -2.0270  -2.0270
    -2.0215  -2.0213  -2.0035  -1.9919  -1.9839  -1.9837  -1.9834  -1.9832
    -1.9823  -1.9818  -1.9681  -1.9481  -1.9480  -1.9446  -1.9393  -1.9266
    -1.9263  -1.9220  -1.9218  -1.9160  -1.9142  -1.8799  -1.8794  -1.8353
    -1.8160  -1.8158  -1.7701  -1.7700  -1.7699  -1.7592  -1.7589  -1.7453
    -1.7449  -1.7377  -1.7373  -1.7271  -1.7268  -1.7066  -1.7065  -1.6697
    -1.6695  -1.6521  -1.6300  -1.6297  -1.5904  -1.5902  -1.5397  -1.5396
    -1.5187  -1.4951  -1.4923  -1.4917  -1.4873  -1.4851  -1.4662  -1.4658
    -1.4650  -1.4646  -1.4630  -1.4626  -1.4619  -1.4608  -1.4597  -1.4326
    -1.4326  -1.3997  -1.3987  -1.3987  -1.3761  -1.3760  -1.3717  -1.3714
    -1.3683  -1.3579  -1.3302  -1.3299  -1.3057  -1.3044  -1.3040  -1.2841
    -1.2729  -1.2725  -1.2434  -1.2432  -1.2365  -1.2363  -1.1978  -1.1974
    -1.1857  -1.1855  -1.1849  -1.1847  -1.1585  -1.1583  -1.1443  -1.1370
    -1.1368  -1.1252  -1.1248  -1.1232  -1.1229  -1.1120  -1.1020  -1.1009
    -1.0943  -1.0942  -1.0874  -1.0834  -1.0832  -1.0670  -1.0545  -1.0249
    -1.0232  -1.0228  -1.0220  -1.0194  -1.0156  -0.9882  -0.9881  -0.9744
    -0.9569  -0.9563  -0.9483  -0.9482  -0.9399  -0.9337  -0.9305  -0.8951
    -0.8948  -0.8835  -0.8835  -0.8632  -0.8631  -0.8477  -0.8236  -0.8155
    -0.7978  -0.7975  -0.7600  -0.7599  -0.7572  -0.7566  -0.7555  -0.7505
    -0.7489  -0.7487  -0.7442  -0.7422  -0.7091  -0.7089  -0.7080  -0.7076
    -0.7060  -0.7056  -0.6921  -0.6919  -0.6637  -0.4038  -0.3929  -0.3499
    -0.3485  -0.3182  -0.2593  -0.1070  -0.1067  -0.0761   0.2085   0.2087
     0.5489   0.5503   0.5931   0.5932   0.6429   0.6436   0.8025   0.8032
     0.9306   0.9328   1.0462   1.5417   1.5819   1.5897   1.6245   1.6252
     1.7607   1.7646   1.8181   1.8187   2.0009   2.0011   2.2861   2.3124
     2.3139   2.3340   2.7675   2.7709   2.7925   2.7927   2.8088   2.8092
     2.8745   2.8754   3.0317   3.1524   3.1543   3.3423   3.3440   3.4497
     3.5215   3.5220   3.8209   3.8222   3.8783   3.8799   3.8801   4.0265
     4.0274   4.0365   4.0542   4.3224   4.3244   4.3601   4.3608   4.4756
     4.4780   4.5403   4.5439   4.8159   5.1159   5.4249   5.4254   5.5089
     5.5113   5.6308   5.6318   5.7031   5.7034   5.7201   5.7206   5.8051
     5.8323   5.8786   6.1139   6.1208   6.1232   6.1302   6.1340   6.1346
     6.1381   6.1497   6.3044   6.3111   6.3887   6.4221   6.4288   6.4490

     the Fermi energy is     0.8746 ev

!    total energy              =   -7379.97835761 Ry
     Harris-Foulkes estimate   =   -7379.97835761 Ry
     estimated scf accuracy    <          1.6E-09 Ry

     The total energy is the sum of the following terms:

     one-electron contribution =  -48153.62645704 Ry
     hartree contribution      =   24624.19150316 Ry
     xc contribution           =   -3556.23783530 Ry
     ewald contribution        =   19705.69340204 Ry
     smearing contrib. (-TS)   =       0.00102953 Ry

     convergence has been achieved in  28 iterations

     Writing output data file 5706416.save

     init_run     :    139.49s CPU    145.61s WALL (       1 calls)
     electrons    :   7881.56s CPU   8241.07s WALL (       1 calls)

     Called by init_run:
     wfcinit      :    106.78s CPU    112.50s WALL (       1 calls)
     potinit      :      3.66s CPU      3.77s WALL (       1 calls)

     Called by electrons:
     c_bands      :   6426.76s CPU   6722.28s WALL (      29 calls)
     sum_band     :    984.43s CPU   1042.46s WALL (      29 calls)
     v_of_rho     :     17.07s CPU     18.52s WALL (      29 calls)
     newd         :    464.81s CPU    468.65s WALL (      29 calls)
     mix_rho      :      3.06s CPU      3.43s WALL (      29 calls)

     Called by c_bands:
     init_us_2    :      9.77s CPU     10.07s WALL (     354 calls)
     cegterg      :   6298.38s CPU   6592.81s WALL (     174 calls)

     Called by *egterg:
     h_psi        :   2502.22s CPU   2729.58s WALL (     934 calls)
     s_psi        :    368.55s CPU    371.61s WALL (     934 calls)
     g_psi        :      4.60s CPU      4.55s WALL (     754 calls)
     cdiaghg      :   1683.18s CPU   1688.13s WALL (     922 calls)

     Called by h_psi:
     add_vuspsi   :    369.80s CPU    372.28s WALL (     934 calls)

     General routines
     calbec       :    766.48s CPU    768.83s WALL (    1108 calls)
     fft          :    175.81s CPU    178.55s WALL (     464 calls)
     ffts         :      1.58s CPU      1.76s WALL (      58 calls)
     fftw         :   1826.27s CPU   2087.21s WALL (  461268 calls)
     interpolate  :      3.72s CPU      4.31s WALL (      58 calls)
     davcio       :      0.00s CPU      0.10s WALL (       6 calls)

     Parallel routines
     fft_scatter  :   1445.99s CPU   1661.77s WALL (  461790 calls)

     PWSCF        :     2h13m CPU        2h19m WALL


   This run was terminated on:  23:56:38   8Aug2015            

=------------------------------------------------------------------------------=
   JOB DONE.
=------------------------------------------------------------------------------=
