Setting SGE environment for SCC

     Program PWSCF v.5.1.2 starts on  2Jul2015 at  0:29:18 

     This program is part of the open-source Quantum ESPRESSO suite
     for quantum simulation of materials; please cite
         "P. Giannozzi et al., J. Phys.:Condens. Matter 21 395502 (2009);
          URL http://www.quantum-espresso.org", 
     in publications or presentations arising from this work. More details at
     http://www.quantum-espresso.org/quote

     Parallel version (MPI), running on    32 processors
     R & G space division:  proc/nbgrp/npool/nimage =      32
     Reading input from bridge.H2.Au6165.d.2.3.phi.0.psi.90.in
Warning: card &IONS ignored
Warning: card / ignored
Warning: card &CELL ignored
Warning: card / ignored

     Current dimensions of program PWSCF are:
     Max number of different atomic species (ntypx) = 10
     Max number of k-points (npk) =  40000
     Max angular momentum in pseudopotentials (lmaxx) =  3

     IMPORTANT: XC functional enforced from input :
     Exchange-correlation      = VDW-DF ( 1  4  4  0 1 0)
     Any further DFT definition will be discarded
     Please, verify this is what you really want


     Subspace diagonalization in iterative solution of the eigenvalue problem:
     a serial algorithm will be used


     Parallelization info
     --------------------
     sticks:   dense  smooth     PW     G-vecs:    dense   smooth      PW
     Min         578     289     74               118518    41891    5486
     Max         579     290     75               118533    41932    5497
     Sum       18505    9265   2385              3792731  1341081  175711


     Title: 
     bridge.H2.Au6165.d.2.3.phi.0.psi.90                                        


     bravais-lattice index     =            8
     lattice parameter (alat)  =      24.1233  a.u.
     unit-cell volume          =   28076.2361 (a.u.)^3
     number of atoms/cell      =           75
     number of atomic types    =            3
     number of electrons       =       800.00
     number of Kohn-Sham states=          480
     kinetic-energy cutoff     =      50.0000  Ry
     charge density cutoff     =     400.0000  Ry
     convergence threshold     =      1.0E-08
     mixing beta               =       0.7000
     number of iterations used =            8  plain     mixing
     Exchange-correlation      = VDW-DF ( 1  4  4  0 1 0)

     celldm(1)=  24.123277  celldm(2)=   1.000000  celldm(3)=   2.000000
     celldm(4)=   0.000000  celldm(5)=   0.000000  celldm(6)=   0.000000

     crystal axes: (cart. coord. in units of alat)
               a(1) = (   1.000000   0.000000   0.000000 )  
               a(2) = (   0.000000   1.000000   0.000000 )  
               a(3) = (   0.000000   0.000000   2.000000 )  

     reciprocal axes: (cart. coord. in units 2 pi/alat)
               b(1) = (  1.000000  0.000000  0.000000 )  
               b(2) = (  0.000000  1.000000  0.000000 )  
               b(3) = (  0.000000  0.000000  0.500000 )  


     PseudoPot. # 1 for Au read from file:
     /home/scc/andrejb/qe/pseudo/Au.pbe-nd-van.UPF
     MD5 check sum: 458681b50f36d87ef23c61b04bba420a
     Pseudo is Ultrasoft + core correction, Zval = 11.0
     Generated by new atomic code, or converted to UPF format
     Using radial grid of  985 points,  3 beta functions with: 
                l(1) =   1
                l(2) =   2
                l(3) =   2
     Q(r) pseudized with  8 coefficients,  rinner =    1.100   1.100   1.100
                                                       1.100   1.100

     PseudoPot. # 2 for H  read from file:
     /home/scc/andrejb/qe/pseudo/H.pbe-van_ak.UPF
     MD5 check sum: 403db7282739603aa925980fa9b8608d
     Pseudo is Ultrasoft, Zval =  1.0
     Generated by new atomic code, or converted to UPF format
     Using radial grid of  615 points,  1 beta functions with: 
                l(1) =   0
     Q(r) pseudized with  8 coefficients,  rinner =    0.800

     PseudoPot. # 3 for O  read from file:
     /home/scc/andrejb/qe/pseudo/O.pbe-van_ak.UPF
     MD5 check sum: 4b8c549914a63cae506c6ff22b5af4fe
     Pseudo is Ultrasoft, Zval =  6.0
     Generated by new atomic code, or converted to UPF format
     Using radial grid of  737 points,  4 beta functions with: 
                l(1) =   0
                l(2) =   0
                l(3) =   1
                l(4) =   1
     Q(r) pseudized with  8 coefficients,  rinner =    0.800   0.800   0.800


     vdW kernel table read from file vdW_kernel_table
     MD5 check sum: 48e77a2e26edf626eeb0eaa751ad5cac

     atomic species   valence    mass     pseudopotential
        Au            11.00   196.96657     Au( 1.00)
        H              1.00     1.01000     H ( 1.00)
        O              6.00    16.00000     O ( 1.00)

     No symmetry found



   Cartesian axes

     site n.     atom                  positions (alat units)
         1           O   tau(   1) = (   0.2673116   0.3436714   0.8506513  )
         2           H   tau(   2) = (   0.2499161   0.4165269   0.8361642  )
         3           H   tau(   3) = (   0.2174848   0.3034807   0.8091732  )
         4           Au  tau(   4) = (   0.0000000   0.0000000   0.0000000  )
         5           Au  tau(   5) = (   0.3332217   0.0000000   0.0000000  )
         6           Au  tau(   6) = (   0.6664434   0.0000000   0.0000000  )
         7           Au  tau(   7) = (   0.1666109   0.1666109   0.0000000  )
         8           Au  tau(   8) = (   0.4998326   0.1666109   0.0000000  )
         9           Au  tau(   9) = (   0.8330542   0.1666109   0.0000000  )
        10           Au  tau(  10) = (   0.0000000   0.3332217   0.0000000  )
        11           Au  tau(  11) = (   0.3332217   0.3332217   0.0000000  )
        12           Au  tau(  12) = (   0.6664434   0.3332217   0.0000000  )
        13           Au  tau(  13) = (   0.1666109   0.4998326   0.0000000  )
        14           Au  tau(  14) = (   0.4998326   0.4998326   0.0000000  )
        15           Au  tau(  15) = (   0.8330542   0.4998326   0.0000000  )
        16           Au  tau(  16) = (   0.0000000   0.6664434   0.0000000  )
        17           Au  tau(  17) = (   0.3332217   0.6664434   0.0000000  )
        18           Au  tau(  18) = (   0.6664434   0.6664434   0.0000000  )
        19           Au  tau(  19) = (   0.1666109   0.8330542   0.0000000  )
        20           Au  tau(  20) = (   0.4998326   0.8330542   0.0000000  )
        21           Au  tau(  21) = (   0.8330542   0.8330542   0.0000000  )
        22           Au  tau(  22) = (   0.1666109   0.0000000   0.1666109  )
        23           Au  tau(  23) = (   0.4998326   0.0000000   0.1666109  )
        24           Au  tau(  24) = (   0.8330542   0.0000000   0.1666109  )
        25           Au  tau(  25) = (   0.0000000   0.1666109   0.1666109  )
        26           Au  tau(  26) = (   0.3332217   0.1666109   0.1666109  )
        27           Au  tau(  27) = (   0.6664434   0.1666109   0.1666109  )
        28           Au  tau(  28) = (   0.1666109   0.3332217   0.1666109  )
        29           Au  tau(  29) = (   0.4998326   0.3332217   0.1666109  )
        30           Au  tau(  30) = (   0.8330542   0.3332217   0.1666109  )
        31           Au  tau(  31) = (   0.0000000   0.4998326   0.1666109  )
        32           Au  tau(  32) = (   0.3332217   0.4998326   0.1666109  )
        33           Au  tau(  33) = (   0.6664434   0.4998326   0.1666109  )
        34           Au  tau(  34) = (   0.1666109   0.6664434   0.1666109  )
        35           Au  tau(  35) = (   0.4998326   0.6664434   0.1666109  )
        36           Au  tau(  36) = (   0.8330542   0.6664434   0.1666109  )
        37           Au  tau(  37) = (   0.0000000   0.8330542   0.1666109  )
        38           Au  tau(  38) = (   0.3332217   0.8330542   0.1666109  )
        39           Au  tau(  39) = (   0.6664434   0.8330542   0.1666109  )
        40           Au  tau(  40) = (  -0.0000182  -0.0000182   0.3335478  )
        41           Au  tau(  41) = (   0.3332215  -0.0000181   0.3335473  )
        42           Au  tau(  42) = (   0.6664447  -0.0000183   0.3335481  )
        43           Au  tau(  43) = (  -0.0000181   0.3332215   0.3335473  )
        44           Au  tau(  44) = (   0.3332215   0.3332215   0.3335468  )
        45           Au  tau(  45) = (   0.6664445   0.3332215   0.3335477  )
        46           Au  tau(  46) = (  -0.0000183   0.6664447   0.3335481  )
        47           Au  tau(  47) = (   0.3332215   0.6664445   0.3335477  )
        48           Au  tau(  48) = (   0.6664446   0.6664446   0.3335486  )
        49           Au  tau(  49) = (   0.1666097   0.1666097   0.3335483  )
        50           Au  tau(  50) = (   0.4998320   0.1666098   0.3335477  )
        51           Au  tau(  51) = (   0.8330732   0.1666096   0.3335480  )
        52           Au  tau(  52) = (   0.1666098   0.4998320   0.3335477  )
        53           Au  tau(  53) = (   0.4998322   0.4998322   0.3335470  )
        54           Au  tau(  54) = (   0.8330731   0.4998322   0.3335474  )
        55           Au  tau(  55) = (   0.1666096   0.8330732   0.3335480  )
        56           Au  tau(  56) = (   0.4998322   0.8330731   0.3335474  )
        57           Au  tau(  57) = (   0.8330731   0.8330731   0.3335478  )
        58           Au  tau(  58) = (   0.1666104  -0.0000111   0.4993095  )
        59           Au  tau(  59) = (   0.4998323  -0.0000112   0.4993099  )
        60           Au  tau(  60) = (   0.8330660  -0.0000111   0.4993009  )
        61           Au  tau(  61) = (  -0.0000111   0.1666104   0.4993095  )
        62           Au  tau(  62) = (   0.3332213   0.1666106   0.4993185  )
        63           Au  tau(  63) = (   0.6664437   0.1666106   0.4993187  )
        64           Au  tau(  64) = (   0.1666106   0.3332213   0.4993185  )
        65           Au  tau(  65) = (   0.4998324   0.3332216   0.4993185  )
        66           Au  tau(  66) = (   0.8330658   0.3332215   0.4993102  )
        67           Au  tau(  67) = (  -0.0000112   0.4998323   0.4993099  )
        68           Au  tau(  68) = (   0.3332216   0.4998324   0.4993185  )
        69           Au  tau(  69) = (   0.6664437   0.4998325   0.4993187  )
        70           Au  tau(  70) = (   0.1666106   0.6664437   0.4993187  )
        71           Au  tau(  71) = (   0.4998325   0.6664437   0.4993187  )
        72           Au  tau(  72) = (   0.8330658   0.6664438   0.4993102  )
        73           Au  tau(  73) = (  -0.0000111   0.8330660   0.4993009  )
        74           Au  tau(  74) = (   0.3332215   0.8330658   0.4993102  )
        75           Au  tau(  75) = (   0.6664438   0.8330658   0.4993102  )

     number of k points=     6  Marzari-Vanderbilt smearing, width (Ry)=  0.0200
                       cart. coord. in units 2pi/alat
        k(    1) = (   0.2500000   0.2500000   0.0833333), wk =   0.3333333
        k(    2) = (   0.2500000   0.2500000  -0.2500000), wk =   0.3333333
        k(    3) = (  -0.2500000  -0.2500000   0.0833333), wk =   0.3333333
        k(    4) = (  -0.2500000   0.2500000  -0.0833333), wk =   0.3333333
        k(    5) = (   0.2500000  -0.2500000  -0.0833333), wk =   0.3333333
        k(    6) = (  -0.2500000   0.2500000   0.2500000), wk =   0.3333333

     Dense  grid:  3792731 G-vectors     FFT dimensions: ( 160, 160, 320)

     Smooth grid:  1341081 G-vectors     FFT dimensions: ( 120, 120, 225)

     Largest allocated arrays     est. size (Mb)     dimensions
        Kohn-Sham Wavefunctions        38.58 Mb     (    5267,  480)
        NL pseudopotentials            76.03 Mb     (    5267,  946)
        Each V/rho on FFT grid          3.91 Mb     (  256000)
        Each G-vector array             0.90 Mb     (  118520)
        G-vector shells                 0.08 Mb     (   10286)
     Largest temporary arrays     est. size (Mb)     dimensions
        Auxiliary wavefunctions       154.31 Mb     (    5267, 1920)
        Each subspace H/S matrix       56.25 Mb     (    1920, 1920)
        Each <psi_i|beta_j> matrix      6.93 Mb     (     946,  480)
        Arrays for rho mixing          31.25 Mb     (  256000,    8)

     Initial potential from superposition of free atoms
     Check: negative starting charge=   -1.944980

     starting charge  799.16392, renormalised to  800.00000

     negative rho (up, down):  1.947E+00 0.000E+00


     ************************************************************************
     *
     * You are using vdW-DF for exchange-correlation in this calculation.
     * Please cite the following three references that made this development
     * possible:
     *
     *   M. Dion, H. Rydberg, E. Schroder, D. C. Langreth, and
     *   B. I. Lundqvist, Phys. Rev. Lett. 92, 246401 (2004).
     *
     *   T. Thonhauser, V. R. Cooper, S. Li, A. Puzder, P. Hyldgaard, and
     *   D. C. Langreth, Phys. Rev. B 76, 125112 (2007).
     *
     *   G. Roman-Perez and J. M. Soler, Phys. Rev. Lett. 103, 096102 (2009).
     *
     *
     * If you are using vdW-DF2, please also cite:
     *
     *   K. Lee, E. D. Murray, L. Kong, B. I. Lundqvist, and
     *   D. C. Langreth, Phys. Rev. B 82, 081101(R) (2010).
     *
     *
     * If you are calculating the stress with vdW-DF, please also cite:
     *
     *   R. Sabatini, E. Kucukbenli, B. Kolb, T. Thonhauser, and
     *   S. de Gironcoli, J. Phys.: Condens. Matter 24, 424209 (2012).
     *
     ************************************************************************

     Carrying out vdW-DF run using the following parameters:

     Nqs =      20    Nr_points =    1024   r_max =   100.000
     q_mesh =
               0.00001000     0.04494208     0.09755937     0.15916263
               0.23128650     0.31572767     0.41458969     0.53033537
               0.66584808     0.82450364     1.01025438     1.22772762
               1.48234092     1.78043706     2.12944203     2.53805004
               3.01644009     3.57652955     4.23227104     5.00000000

     Gradients computed in reciprocal space

     ************************************************************************


     Starting wfc are  654 randomized atomic wfcs

     total cpu time spent up to now is      165.7 secs

     Self-consistent Calculation

     iteration #  1     ecut=    50.00 Ry     beta=0.70
     Davidson diagonalization with overlap
     ethr =  1.00E-02,  avg # of iterations =  3.0

     Threshold (ethr) on eigenvalues was too large:
     Diagonalizing with lowered threshold

     Davidson diagonalization with overlap
     ethr =  4.29E-04,  avg # of iterations =  2.3

     negative rho (up, down):  1.947E+00 0.000E+00

     total cpu time spent up to now is      792.7 secs

     total energy              =   -7423.00279468 Ry
     Harris-Foulkes estimate   =   -7426.08578298 Ry
     estimated scf accuracy    <       3.80416485 Ry

     iteration #  2     ecut=    50.00 Ry     beta=0.70
     Davidson diagonalization with overlap
     ethr =  4.76E-04,  avg # of iterations = 11.3

     negative rho (up, down):  1.942E+00 0.000E+00

     total cpu time spent up to now is     1711.6 secs

     total energy              =   -7414.91115804 Ry
     Harris-Foulkes estimate   =   -7432.74008006 Ry
     estimated scf accuracy    <      93.33437659 Ry

     iteration #  3     ecut=    50.00 Ry     beta=0.70
     Davidson diagonalization with overlap
     ethr =  4.76E-04,  avg # of iterations =  6.0

     negative rho (up, down):  1.954E+00 0.000E+00

     total cpu time spent up to now is     2317.1 secs

     total energy              =   -7423.98195250 Ry
     Harris-Foulkes estimate   =   -7425.95114471 Ry
     estimated scf accuracy    <       8.63527972 Ry

     iteration #  4     ecut=    50.00 Ry     beta=0.70
     Davidson diagonalization with overlap
     ethr =  4.76E-04,  avg # of iterations =  6.7

     negative rho (up, down):  1.955E+00 0.000E+00

     total cpu time spent up to now is     2697.2 secs

     total energy              =   -7424.64958209 Ry
     Harris-Foulkes estimate   =   -7425.79896012 Ry
     estimated scf accuracy    <       7.43123152 Ry

     iteration #  5     ecut=    50.00 Ry     beta=0.70
     Davidson diagonalization with overlap
     ethr =  4.76E-04,  avg # of iterations =  6.0

     negative rho (up, down):  1.964E+00 0.000E+00

     total cpu time spent up to now is     3066.4 secs

     total energy              =   -7425.14573298 Ry
     Harris-Foulkes estimate   =   -7425.53358749 Ry
     estimated scf accuracy    <       2.75575224 Ry

     iteration #  6     ecut=    50.00 Ry     beta=0.70
     Davidson diagonalization with overlap
     ethr =  3.44E-04,  avg # of iterations =  6.0

     negative rho (up, down):  1.968E+00 0.000E+00

     total cpu time spent up to now is     3399.0 secs

     total energy              =   -7425.28640175 Ry
     Harris-Foulkes estimate   =   -7425.32484151 Ry
     estimated scf accuracy    <       0.11877145 Ry

     iteration #  7     ecut=    50.00 Ry     beta=0.70
     Davidson diagonalization with overlap
     ethr =  1.48E-05,  avg # of iterations = 10.3

     negative rho (up, down):  1.971E+00 0.000E+00

     total cpu time spent up to now is     3870.8 secs

     total energy              =   -7425.27757513 Ry
     Harris-Foulkes estimate   =   -7425.32833353 Ry
     estimated scf accuracy    <       0.26918892 Ry

     iteration #  8     ecut=    50.00 Ry     beta=0.70
     Davidson diagonalization with overlap
     ethr =  1.48E-05,  avg # of iterations =  3.0

     negative rho (up, down):  1.972E+00 0.000E+00

     total cpu time spent up to now is     4186.5 secs

     total energy              =   -7425.29109387 Ry
     Harris-Foulkes estimate   =   -7425.30564301 Ry
     estimated scf accuracy    <       0.05465115 Ry

     iteration #  9     ecut=    50.00 Ry     beta=0.70
     Davidson diagonalization with overlap
     ethr =  6.83E-06,  avg # of iterations =  4.8

     negative rho (up, down):  1.972E+00 0.000E+00

     total cpu time spent up to now is     4509.5 secs

     total energy              =   -7425.28945634 Ry
     Harris-Foulkes estimate   =   -7425.29992843 Ry
     estimated scf accuracy    <       0.03683417 Ry

     iteration # 10     ecut=    50.00 Ry     beta=0.70
     Davidson diagonalization with overlap
     ethr =  4.60E-06,  avg # of iterations =  5.2

     negative rho (up, down):  1.973E+00 0.000E+00

     total cpu time spent up to now is     4842.6 secs

     total energy              =   -7425.29063664 Ry
     Harris-Foulkes estimate   =   -7425.29376965 Ry
     estimated scf accuracy    <       0.01009691 Ry

     iteration # 11     ecut=    50.00 Ry     beta=0.70
     Davidson diagonalization with overlap
     ethr =  1.26E-06,  avg # of iterations =  9.2

     negative rho (up, down):  1.974E+00 0.000E+00

     total cpu time spent up to now is     5217.5 secs

     total energy              =   -7425.29059808 Ry
     Harris-Foulkes estimate   =   -7425.29202397 Ry
     estimated scf accuracy    <       0.00569520 Ry

     iteration # 12     ecut=    50.00 Ry     beta=0.70
     Davidson diagonalization with overlap
     ethr =  7.12E-07,  avg # of iterations =  2.8

     negative rho (up, down):  1.975E+00 0.000E+00

     total cpu time spent up to now is     5499.5 secs

     total energy              =   -7425.28969233 Ry
     Harris-Foulkes estimate   =   -7425.29105783 Ry
     estimated scf accuracy    <       0.00197142 Ry

     iteration # 13     ecut=    50.00 Ry     beta=0.70
     Davidson diagonalization with overlap
     ethr =  2.46E-07,  avg # of iterations =  7.2

     negative rho (up, down):  1.974E+00 0.000E+00

     total cpu time spent up to now is     5947.3 secs

     total energy              =   -7425.28935092 Ry
     Harris-Foulkes estimate   =   -7425.29089154 Ry
     estimated scf accuracy    <       0.00679237 Ry

     iteration # 14     ecut=    50.00 Ry     beta=0.70
     Davidson diagonalization with overlap
     ethr =  2.46E-07,  avg # of iterations =  3.0

     negative rho (up, down):  1.974E+00 0.000E+00

     total cpu time spent up to now is     6284.0 secs

     total energy              =   -7425.28999538 Ry
     Harris-Foulkes estimate   =   -7425.29028554 Ry
     estimated scf accuracy    <       0.00123437 Ry

     iteration # 15     ecut=    50.00 Ry     beta=0.70
     Davidson diagonalization with overlap
     ethr =  1.54E-07,  avg # of iterations =  2.0

     negative rho (up, down):  1.974E+00 0.000E+00

     total cpu time spent up to now is     6553.1 secs

     total energy              =   -7425.29008998 Ry
     Harris-Foulkes estimate   =   -7425.29022112 Ry
     estimated scf accuracy    <       0.00058022 Ry

     iteration # 16     ecut=    50.00 Ry     beta=0.70
     Davidson diagonalization with overlap
     ethr =  7.25E-08,  avg # of iterations =  2.0

     negative rho (up, down):  1.974E+00 0.000E+00

     total cpu time spent up to now is     6846.2 secs

     total energy              =   -7425.29009382 Ry
     Harris-Foulkes estimate   =   -7425.29025004 Ry
     estimated scf accuracy    <       0.00126908 Ry

     iteration # 17     ecut=    50.00 Ry     beta=0.70
     Davidson diagonalization with overlap
     ethr =  7.25E-08,  avg # of iterations =  2.0

     negative rho (up, down):  1.974E+00 0.000E+00

     total cpu time spent up to now is     7141.7 secs

     total energy              =   -7425.29016808 Ry
     Harris-Foulkes estimate   =   -7425.29018152 Ry
     estimated scf accuracy    <       0.00003858 Ry

     iteration # 18     ecut=    50.00 Ry     beta=0.70
     Davidson diagonalization with overlap
     ethr =  4.82E-09,  avg # of iterations =  2.0

     negative rho (up, down):  1.974E+00 0.000E+00

     total cpu time spent up to now is     7454.9 secs

     total energy              =   -7425.29017321 Ry
     Harris-Foulkes estimate   =   -7425.29017815 Ry
     estimated scf accuracy    <       0.00001843 Ry

     iteration # 19     ecut=    50.00 Ry     beta=0.70
     Davidson diagonalization with overlap
     ethr =  2.30E-09,  avg # of iterations =  3.0

     negative rho (up, down):  1.974E+00 0.000E+00

     total cpu time spent up to now is     7750.2 secs

     total energy              =   -7425.29017351 Ry
     Harris-Foulkes estimate   =   -7425.29017933 Ry
     estimated scf accuracy    <       0.00003005 Ry

     iteration # 20     ecut=    50.00 Ry     beta=0.70
     Davidson diagonalization with overlap
     ethr =  2.30E-09,  avg # of iterations =  2.0

     negative rho (up, down):  1.974E+00 0.000E+00

     total cpu time spent up to now is     8036.9 secs

     total energy              =   -7425.29017633 Ry
     Harris-Foulkes estimate   =   -7425.29017701 Ry
     estimated scf accuracy    <       0.00000250 Ry

     iteration # 21     ecut=    50.00 Ry     beta=0.70
     Davidson diagonalization with overlap
     ethr =  3.12E-10,  avg # of iterations =  2.0

     negative rho (up, down):  1.974E+00 0.000E+00

     total cpu time spent up to now is     8360.8 secs

     total energy              =   -7425.29017663 Ry
     Harris-Foulkes estimate   =   -7425.29017711 Ry
     estimated scf accuracy    <       0.00000223 Ry

     iteration # 22     ecut=    50.00 Ry     beta=0.70
     Davidson diagonalization with overlap
     ethr =  2.79E-10,  avg # of iterations =  2.0

     negative rho (up, down):  1.974E+00 0.000E+00

     total cpu time spent up to now is     8660.8 secs

     total energy              =   -7425.29017698 Ry
     Harris-Foulkes estimate   =   -7425.29017707 Ry
     estimated scf accuracy    <       0.00000064 Ry

     iteration # 23     ecut=    50.00 Ry     beta=0.70
     Davidson diagonalization with overlap
     ethr =  8.04E-11,  avg # of iterations =  3.0

     negative rho (up, down):  1.974E+00 0.000E+00

     total cpu time spent up to now is     8968.0 secs

     total energy              =   -7425.29017704 Ry
     Harris-Foulkes estimate   =   -7425.29017708 Ry
     estimated scf accuracy    <       0.00000012 Ry

     iteration # 24     ecut=    50.00 Ry     beta=0.70
     Davidson diagonalization with overlap
     ethr =  1.52E-11,  avg # of iterations =  3.0

     negative rho (up, down):  1.974E+00 0.000E+00

     total cpu time spent up to now is     9312.8 secs

     total energy              =   -7425.29017707 Ry
     Harris-Foulkes estimate   =   -7425.29017710 Ry
     estimated scf accuracy    <       0.00000031 Ry

     iteration # 25     ecut=    50.00 Ry     beta=0.70
     Davidson diagonalization with overlap
     ethr =  1.52E-11,  avg # of iterations =  3.0

     negative rho (up, down):  1.974E+00 0.000E+00

     total cpu time spent up to now is     9638.1 secs

     total energy              =   -7425.29017710 Ry
     Harris-Foulkes estimate   =   -7425.29017711 Ry
     estimated scf accuracy    <       0.00000012 Ry

     iteration # 26     ecut=    50.00 Ry     beta=0.70
     Davidson diagonalization with overlap
     ethr =  1.52E-11,  avg # of iterations =  2.0

     negative rho (up, down):  1.974E+00 0.000E+00

     total cpu time spent up to now is     9936.5 secs

     total energy              =   -7425.29017712 Ry
     Harris-Foulkes estimate   =   -7425.29017712 Ry
     estimated scf accuracy    <       0.00000011 Ry

     iteration # 27     ecut=    50.00 Ry     beta=0.70
     Davidson diagonalization with overlap
     ethr =  1.41E-11,  avg # of iterations =  1.0

     negative rho (up, down):  1.974E+00 0.000E+00

     total cpu time spent up to now is    10215.2 secs

     total energy              =   -7425.29017712 Ry
     Harris-Foulkes estimate   =   -7425.29017713 Ry
     estimated scf accuracy    <       0.00000003 Ry

     iteration # 28     ecut=    50.00 Ry     beta=0.70
     Davidson diagonalization with overlap
     ethr =  4.03E-12,  avg # of iterations =  2.0

     negative rho (up, down):  1.974E+00 0.000E+00

     total cpu time spent up to now is    10493.1 secs

     End of self-consistent calculation

          k = 0.2500 0.2500 0.0833 (167653 PWs)   bands (ev):

   -19.2621  -7.0779  -6.8829  -6.3545  -6.3539  -5.9246  -5.5156  -5.4226
    -5.4220  -5.2263  -5.2263  -5.1089  -5.1079  -5.0299  -5.0069  -4.9339
    -4.8491  -4.8452  -4.8064  -4.8062  -4.6454  -4.6290  -4.6278  -4.6273
    -4.6204  -4.5648  -4.5647  -4.5530  -4.5526  -4.5159  -4.5034  -4.5026
    -4.4611  -4.4609  -4.4276  -4.4263  -4.3746  -4.3739  -4.3632  -4.3624
    -4.3569  -4.3438  -4.3437  -4.3026  -4.2845  -4.2843  -4.2774  -4.2771
    -4.2449  -4.1953  -4.1803  -4.1799  -4.1764  -4.1758  -4.1684  -4.1626
    -4.1623  -4.1622  -4.0974  -4.0965  -4.0475  -4.0468  -4.0347  -4.0087
    -4.0085  -3.9889  -3.9863  -3.9857  -3.9812  -3.9784  -3.9295  -3.9295
    -3.9166  -3.9162  -3.8113  -3.8106  -3.8052  -3.8044  -3.7675  -3.7585
    -3.7437  -3.7142  -3.7142  -3.6857  -3.6852  -3.6638  -3.6634  -3.6501
    -3.6495  -3.5951  -3.5948  -3.5768  -3.5605  -3.5495  -3.5481  -3.5478
    -3.5463  -3.5194  -3.5191  -3.4829  -3.4829  -3.4605  -3.4600  -3.4272
    -3.4268  -3.4087  -3.3814  -3.3813  -3.3441  -3.3437  -3.3086  -3.3011
    -3.3003  -3.2900  -3.2860  -3.2855  -3.2809  -3.2806  -3.2425  -3.2319
    -3.1915  -3.1914  -3.1836  -3.1741  -3.1733  -3.1719  -3.1475  -3.1475
    -3.1263  -3.1259  -3.1252  -3.0987  -3.0986  -3.0911  -3.0883  -3.0881
    -3.0520  -3.0480  -3.0127  -3.0122  -3.0115  -3.0087  -3.0085  -2.9295
    -2.9195  -2.9152  -2.9146  -2.9135  -2.9131  -2.9086  -2.9083  -2.9080
    -2.9078  -2.8983  -2.8905  -2.8734  -2.8708  -2.8702  -2.8697  -2.8551
    -2.8506  -2.8124  -2.8118  -2.8115  -2.8077  -2.8069  -2.7891  -2.7887
    -2.7800  -2.7799  -2.7777  -2.7181  -2.7180  -2.7127  -2.7126  -2.7076
    -2.7074  -2.6793  -2.6204  -2.6191  -2.6187  -2.6168  -2.6055  -2.6032
    -2.5985  -2.5876  -2.5873  -2.5508  -2.5499  -2.5417  -2.5410  -2.5405
    -2.5402  -2.5009  -2.5004  -2.4908  -2.4907  -2.4893  -2.4889  -2.4471
    -2.4312  -2.4256  -2.3724  -2.3720  -2.3536  -2.3518  -2.3467  -2.3466
    -2.2982  -2.2972  -2.2743  -2.2578  -2.2437  -2.2430  -2.2426  -2.2208
    -2.2206  -2.2109  -2.1945  -2.1539  -2.1530  -2.1394  -2.1388  -2.1384
    -2.1279  -2.1275  -2.1124  -2.1121  -2.1119  -2.1077  -2.1030  -2.1021
    -2.1017  -2.0902  -2.0897  -2.0721  -2.0718  -2.0698  -2.0636  -2.0609
    -2.0605  -2.0370  -2.0365  -2.0254  -2.0233  -2.0191  -2.0182  -1.9803
    -1.9466  -1.9459  -1.9107  -1.8936  -1.8932  -1.8828  -1.8821  -1.8592
    -1.8585  -1.8443  -1.8437  -1.8423  -1.8423  -1.8394  -1.8387  -1.8068
    -1.8066  -1.8062  -1.7605  -1.7599  -1.7204  -1.7199  -1.6729  -1.6727
    -1.6605  -1.6379  -1.6330  -1.6301  -1.6140  -1.6119  -1.5950  -1.5941
    -1.5900  -1.5891  -1.5879  -1.5873  -1.5869  -1.5846  -1.5645  -1.5643
    -1.5543  -1.5364  -1.5175  -1.5175  -1.4910  -1.4907  -1.4884  -1.4876
    -1.4853  -1.4819  -1.4608  -1.4598  -1.4460  -1.4444  -1.4324  -1.4217
    -1.4084  -1.4076  -1.3771  -1.3766  -1.3697  -1.3687  -1.3342  -1.3328
    -1.3251  -1.3245  -1.3161  -1.3157  -1.2944  -1.2940  -1.2822  -1.2759
    -1.2752  -1.2728  -1.2622  -1.2616  -1.2612  -1.2570  -1.2469  -1.2365
    -1.2356  -1.2285  -1.2282  -1.2160  -1.2116  -1.2106  -1.2048  -1.1654
    -1.1634  -1.1588  -1.1560  -1.1554  -1.1550  -1.1161  -1.0995  -1.0987
    -1.0985  -1.0983  -1.0940  -1.0934  -1.0889  -1.0763  -1.0735  -1.0374
    -1.0367  -1.0298  -1.0298  -1.0070  -1.0067  -0.9969  -0.9672  -0.9595
    -0.9324  -0.9318  -0.9041  -0.9039  -0.9015  -0.9004  -0.8990  -0.8952
    -0.8916  -0.8899  -0.8854  -0.8850  -0.8533  -0.8529  -0.8354  -0.8340
    -0.8296  -0.8291  -0.8278  -0.8275  -0.8089  -0.5328  -0.5226  -0.4679
    -0.4652  -0.4276  -0.2666  -0.2018  -0.2012  -0.1703   0.1174   0.1179
     0.4463   0.4492   0.5465   0.5467   0.5873   0.5887   0.7305   0.7320
     0.8552   0.8571   0.9433   1.5425   1.5606   1.5615   1.6001   1.6064
     1.6463   1.6537   1.7301   1.7316   1.9380   1.9387   2.1718   2.2517
     2.2550   2.2693   2.6461   2.6528   2.7242   2.7245   2.7307   2.7316
     2.8825   2.8835   2.9265   3.0245   3.0283   3.2589   3.2593   3.3929
     3.4195   3.4209   3.6896   3.6926   3.8031   3.8234   3.8237   3.8668
     3.9060   4.0098   4.0117   4.2468   4.2485   4.3332   4.3365   4.4607
     4.4632   4.4786   4.4872   4.6115   4.8553   5.2740   5.2949   5.3902
     5.3940   5.4627   5.5701   5.5731   5.6049   5.6682   5.6847   5.6887
     5.7064   5.7406   5.7417   5.7848   5.9809   6.0152   6.0522   6.0669
     6.0694   6.0813   6.0846   6.0927   6.0931   6.1087   6.1384   6.1647

          k = 0.2500 0.2500-0.2500 (167588 PWs)   bands (ev):

   -19.2621  -7.0779  -6.8829  -6.3545  -6.3539  -5.9246  -5.5156  -5.4226
    -5.4220  -5.2263  -5.2263  -5.1089  -5.1079  -5.0299  -5.0069  -4.9339
    -4.8491  -4.8452  -4.8064  -4.8062  -4.6454  -4.6290  -4.6278  -4.6273
    -4.6204  -4.5648  -4.5647  -4.5530  -4.5525  -4.5159  -4.5034  -4.5026
    -4.4611  -4.4609  -4.4276  -4.4263  -4.3746  -4.3739  -4.3632  -4.3624
    -4.3569  -4.3438  -4.3437  -4.3026  -4.2845  -4.2843  -4.2774  -4.2771
    -4.2449  -4.1953  -4.1803  -4.1799  -4.1764  -4.1758  -4.1684  -4.1626
    -4.1623  -4.1622  -4.0974  -4.0965  -4.0475  -4.0468  -4.0347  -4.0087
    -4.0085  -3.9889  -3.9863  -3.9857  -3.9812  -3.9784  -3.9295  -3.9295
    -3.9166  -3.9162  -3.8113  -3.8106  -3.8052  -3.8044  -3.7675  -3.7585
    -3.7437  -3.7142  -3.7142  -3.6857  -3.6852  -3.6638  -3.6634  -3.6501
    -3.6495  -3.5951  -3.5948  -3.5768  -3.5605  -3.5495  -3.5481  -3.5478
    -3.5463  -3.5194  -3.5191  -3.4829  -3.4829  -3.4605  -3.4600  -3.4272
    -3.4268  -3.4087  -3.3814  -3.3813  -3.3441  -3.3437  -3.3086  -3.3011
    -3.3003  -3.2899  -3.2860  -3.2855  -3.2809  -3.2806  -3.2425  -3.2319
    -3.1915  -3.1914  -3.1836  -3.1741  -3.1733  -3.1719  -3.1476  -3.1475
    -3.1263  -3.1259  -3.1252  -3.0987  -3.0986  -3.0911  -3.0883  -3.0881
    -3.0520  -3.0480  -3.0127  -3.0122  -3.0115  -3.0086  -3.0085  -2.9295
    -2.9195  -2.9152  -2.9146  -2.9135  -2.9131  -2.9085  -2.9083  -2.9080
    -2.9078  -2.8983  -2.8905  -2.8734  -2.8708  -2.8702  -2.8697  -2.8551
    -2.8506  -2.8124  -2.8117  -2.8115  -2.8077  -2.8069  -2.7891  -2.7887
    -2.7800  -2.7799  -2.7777  -2.7181  -2.7180  -2.7127  -2.7126  -2.7076
    -2.7074  -2.6793  -2.6204  -2.6191  -2.6187  -2.6168  -2.6055  -2.6032
    -2.5985  -2.5876  -2.5873  -2.5508  -2.5499  -2.5417  -2.5410  -2.5405
    -2.5402  -2.5009  -2.5004  -2.4908  -2.4907  -2.4893  -2.4889  -2.4471
    -2.4312  -2.4256  -2.3723  -2.3720  -2.3536  -2.3519  -2.3467  -2.3466
    -2.2982  -2.2972  -2.2743  -2.2579  -2.2437  -2.2430  -2.2426  -2.2208
    -2.2206  -2.2109  -2.1945  -2.1539  -2.1530  -2.1394  -2.1388  -2.1384
    -2.1279  -2.1275  -2.1124  -2.1121  -2.1119  -2.1077  -2.1030  -2.1021
    -2.1017  -2.0902  -2.0897  -2.0721  -2.0718  -2.0698  -2.0636  -2.0609
    -2.0605  -2.0370  -2.0365  -2.0254  -2.0233  -2.0191  -2.0182  -1.9803
    -1.9466  -1.9459  -1.9107  -1.8936  -1.8932  -1.8828  -1.8821  -1.8591
    -1.8585  -1.8443  -1.8437  -1.8423  -1.8423  -1.8394  -1.8387  -1.8068
    -1.8066  -1.8062  -1.7605  -1.7599  -1.7204  -1.7199  -1.6730  -1.6727
    -1.6606  -1.6379  -1.6330  -1.6301  -1.6140  -1.6119  -1.5950  -1.5941
    -1.5900  -1.5891  -1.5879  -1.5873  -1.5869  -1.5846  -1.5645  -1.5643
    -1.5543  -1.5364  -1.5175  -1.5175  -1.4910  -1.4907  -1.4884  -1.4876
    -1.4853  -1.4819  -1.4608  -1.4598  -1.4460  -1.4444  -1.4324  -1.4217
    -1.4084  -1.4076  -1.3771  -1.3766  -1.3697  -1.3687  -1.3342  -1.3328
    -1.3251  -1.3245  -1.3161  -1.3157  -1.2944  -1.2940  -1.2822  -1.2759
    -1.2752  -1.2728  -1.2622  -1.2616  -1.2612  -1.2570  -1.2469  -1.2365
    -1.2356  -1.2285  -1.2282  -1.2160  -1.2116  -1.2106  -1.2048  -1.1654
    -1.1634  -1.1588  -1.1560  -1.1554  -1.1550  -1.1161  -1.0995  -1.0987
    -1.0985  -1.0983  -1.0940  -1.0934  -1.0889  -1.0763  -1.0735  -1.0374
    -1.0367  -1.0298  -1.0298  -1.0070  -1.0067  -0.9969  -0.9672  -0.9595
    -0.9324  -0.9318  -0.9041  -0.9039  -0.9015  -0.9004  -0.8990  -0.8952
    -0.8916  -0.8899  -0.8854  -0.8850  -0.8533  -0.8529  -0.8354  -0.8340
    -0.8296  -0.8291  -0.8278  -0.8275  -0.8089  -0.5328  -0.5226  -0.4679
    -0.4652  -0.4276  -0.2666  -0.2018  -0.2012  -0.1703   0.1174   0.1179
     0.4463   0.4492   0.5465   0.5467   0.5873   0.5887   0.7305   0.7320
     0.8552   0.8571   0.9433   1.5425   1.5606   1.5615   1.6001   1.6064
     1.6463   1.6538   1.7301   1.7316   1.9380   1.9387   2.1718   2.2517
     2.2550   2.2693   2.6461   2.6528   2.7242   2.7245   2.7307   2.7316
     2.8825   2.8835   2.9266   3.0245   3.0283   3.2589   3.2593   3.3929
     3.4195   3.4209   3.6896   3.6926   3.8031   3.8234   3.8237   3.8669
     3.9060   4.0098   4.0117   4.2468   4.2485   4.3332   4.3365   4.4607
     4.4632   4.4786   4.4872   4.6115   4.8525   5.2732   5.2944   5.3893
     5.3938   5.4473   5.5703   5.5731   5.6171   5.6732   5.6863   5.6903
     5.7283   5.7407   5.7417   5.7850   6.0007   6.0237   6.0526   6.0694
     6.0793   6.0843   6.0926   6.0930   6.1023   6.1116   6.1298   6.1615

          k =-0.2500-0.2500 0.0833 (167653 PWs)   bands (ev):

   -19.2621  -7.0779  -6.8829  -6.3545  -6.3539  -5.9246  -5.5156  -5.4226
    -5.4220  -5.2263  -5.2263  -5.1089  -5.1079  -5.0299  -5.0069  -4.9339
    -4.8491  -4.8452  -4.8064  -4.8062  -4.6454  -4.6290  -4.6278  -4.6273
    -4.6204  -4.5648  -4.5647  -4.5530  -4.5526  -4.5159  -4.5034  -4.5026
    -4.4611  -4.4609  -4.4276  -4.4263  -4.3746  -4.3739  -4.3632  -4.3624
    -4.3569  -4.3438  -4.3437  -4.3026  -4.2845  -4.2843  -4.2774  -4.2771
    -4.2449  -4.1953  -4.1803  -4.1799  -4.1764  -4.1758  -4.1684  -4.1626
    -4.1623  -4.1622  -4.0974  -4.0965  -4.0475  -4.0468  -4.0347  -4.0087
    -4.0085  -3.9889  -3.9863  -3.9857  -3.9812  -3.9784  -3.9295  -3.9295
    -3.9166  -3.9162  -3.8113  -3.8106  -3.8052  -3.8044  -3.7675  -3.7585
    -3.7437  -3.7142  -3.7142  -3.6857  -3.6852  -3.6638  -3.6634  -3.6501
    -3.6495  -3.5951  -3.5948  -3.5768  -3.5605  -3.5495  -3.5481  -3.5478
    -3.5463  -3.5194  -3.5191  -3.4829  -3.4829  -3.4605  -3.4600  -3.4272
    -3.4268  -3.4087  -3.3814  -3.3813  -3.3441  -3.3437  -3.3086  -3.3011
    -3.3003  -3.2900  -3.2860  -3.2855  -3.2809  -3.2806  -3.2425  -3.2319
    -3.1915  -3.1914  -3.1836  -3.1741  -3.1733  -3.1719  -3.1475  -3.1475
    -3.1263  -3.1259  -3.1252  -3.0987  -3.0986  -3.0911  -3.0883  -3.0881
    -3.0520  -3.0480  -3.0127  -3.0122  -3.0115  -3.0087  -3.0085  -2.9295
    -2.9195  -2.9152  -2.9146  -2.9135  -2.9131  -2.9086  -2.9083  -2.9080
    -2.9078  -2.8983  -2.8905  -2.8734  -2.8708  -2.8702  -2.8697  -2.8551
    -2.8506  -2.8124  -2.8118  -2.8115  -2.8077  -2.8069  -2.7891  -2.7887
    -2.7800  -2.7799  -2.7777  -2.7181  -2.7180  -2.7127  -2.7126  -2.7076
    -2.7074  -2.6793  -2.6204  -2.6191  -2.6187  -2.6168  -2.6055  -2.6032
    -2.5985  -2.5876  -2.5873  -2.5508  -2.5499  -2.5417  -2.5410  -2.5405
    -2.5402  -2.5009  -2.5004  -2.4908  -2.4907  -2.4893  -2.4889  -2.4471
    -2.4312  -2.4256  -2.3724  -2.3720  -2.3536  -2.3518  -2.3467  -2.3466
    -2.2982  -2.2972  -2.2743  -2.2578  -2.2437  -2.2430  -2.2426  -2.2208
    -2.2206  -2.2109  -2.1945  -2.1539  -2.1530  -2.1394  -2.1388  -2.1384
    -2.1279  -2.1275  -2.1124  -2.1121  -2.1119  -2.1077  -2.1030  -2.1021
    -2.1017  -2.0902  -2.0897  -2.0721  -2.0718  -2.0698  -2.0636  -2.0609
    -2.0605  -2.0370  -2.0365  -2.0254  -2.0233  -2.0191  -2.0182  -1.9803
    -1.9466  -1.9459  -1.9107  -1.8936  -1.8932  -1.8828  -1.8821  -1.8592
    -1.8585  -1.8443  -1.8437  -1.8423  -1.8423  -1.8394  -1.8387  -1.8068
    -1.8066  -1.8062  -1.7605  -1.7599  -1.7204  -1.7199  -1.6729  -1.6727
    -1.6605  -1.6379  -1.6330  -1.6301  -1.6140  -1.6119  -1.5950  -1.5941
    -1.5900  -1.5891  -1.5879  -1.5873  -1.5869  -1.5846  -1.5645  -1.5643
    -1.5543  -1.5364  -1.5175  -1.5175  -1.4910  -1.4907  -1.4884  -1.4876
    -1.4853  -1.4819  -1.4608  -1.4598  -1.4460  -1.4444  -1.4324  -1.4217
    -1.4084  -1.4076  -1.3771  -1.3766  -1.3697  -1.3687  -1.3342  -1.3328
    -1.3251  -1.3245  -1.3161  -1.3157  -1.2944  -1.2940  -1.2822  -1.2759
    -1.2752  -1.2728  -1.2622  -1.2616  -1.2612  -1.2570  -1.2469  -1.2365
    -1.2356  -1.2285  -1.2282  -1.2160  -1.2116  -1.2106  -1.2048  -1.1654
    -1.1634  -1.1588  -1.1560  -1.1554  -1.1550  -1.1161  -1.0995  -1.0987
    -1.0985  -1.0983  -1.0940  -1.0934  -1.0889  -1.0763  -1.0735  -1.0374
    -1.0367  -1.0298  -1.0298  -1.0070  -1.0067  -0.9969  -0.9672  -0.9595
    -0.9324  -0.9318  -0.9041  -0.9039  -0.9015  -0.9004  -0.8990  -0.8952
    -0.8916  -0.8899  -0.8854  -0.8850  -0.8533  -0.8529  -0.8354  -0.8340
    -0.8296  -0.8291  -0.8278  -0.8275  -0.8089  -0.5328  -0.5226  -0.4679
    -0.4652  -0.4276  -0.2666  -0.2018  -0.2012  -0.1703   0.1174   0.1179
     0.4463   0.4492   0.5465   0.5467   0.5873   0.5887   0.7305   0.7320
     0.8552   0.8571   0.9433   1.5425   1.5606   1.5615   1.6001   1.6064
     1.6463   1.6537   1.7301   1.7316   1.9380   1.9387   2.1718   2.2517
     2.2550   2.2693   2.6461   2.6528   2.7242   2.7245   2.7307   2.7316
     2.8825   2.8835   2.9265   3.0245   3.0283   3.2589   3.2593   3.3929
     3.4195   3.4209   3.6896   3.6926   3.8032   3.8234   3.8237   3.8668
     3.9060   4.0098   4.0117   4.2468   4.2485   4.3332   4.3365   4.4607
     4.4632   4.4786   4.4872   4.6115   4.8552   5.2741   5.2951   5.3902
     5.3940   5.4600   5.5702   5.5731   5.6069   5.6699   5.6847   5.6888
     5.7071   5.7406   5.7417   5.7848   5.9815   6.0149   6.0523   6.0651
     6.0694   6.0814   6.0846   6.0927   6.0931   6.1064   6.1381   6.1636

          k =-0.2500 0.2500-0.0833 (167653 PWs)   bands (ev):

   -19.2621  -7.0779  -6.8829  -6.3544  -6.3540  -5.9246  -5.5156  -5.4225
    -5.4221  -5.2263  -5.2263  -5.1087  -5.1081  -5.0299  -5.0069  -4.9339
    -4.8491  -4.8452  -4.8064  -4.8062  -4.6454  -4.6289  -4.6277  -4.6274
    -4.6204  -4.5648  -4.5647  -4.5529  -4.5526  -4.5159  -4.5033  -4.5028
    -4.4611  -4.4610  -4.4276  -4.4263  -4.3745  -4.3740  -4.3632  -4.3624
    -4.3569  -4.3438  -4.3438  -4.3026  -4.2845  -4.2843  -4.2774  -4.2772
    -4.2449  -4.1953  -4.1803  -4.1800  -4.1763  -4.1759  -4.1684  -4.1626
    -4.1623  -4.1622  -4.0972  -4.0966  -4.0474  -4.0470  -4.0347  -4.0087
    -4.0086  -3.9889  -3.9863  -3.9857  -3.9812  -3.9784  -3.9295  -3.9295
    -3.9165  -3.9162  -3.8112  -3.8107  -3.8050  -3.8046  -3.7675  -3.7585
    -3.7437  -3.7142  -3.7141  -3.6856  -3.6853  -3.6637  -3.6635  -3.6500
    -3.6496  -3.5951  -3.5949  -3.5768  -3.5605  -3.5494  -3.5480  -3.5479
    -3.5463  -3.5193  -3.5191  -3.4829  -3.4829  -3.4604  -3.4601  -3.4271
    -3.4269  -3.4087  -3.3814  -3.3813  -3.3440  -3.3438  -3.3086  -3.3010
    -3.3003  -3.2899  -3.2861  -3.2855  -3.2810  -3.2804  -3.2425  -3.2320
    -3.1915  -3.1914  -3.1836  -3.1740  -3.1734  -3.1718  -3.1475  -3.1475
    -3.1262  -3.1259  -3.1253  -3.0987  -3.0986  -3.0911  -3.0883  -3.0882
    -3.0520  -3.0480  -3.0126  -3.0123  -3.0115  -3.0086  -3.0085  -2.9295
    -2.9195  -2.9151  -2.9146  -2.9134  -2.9132  -2.9085  -2.9082  -2.9081
    -2.9078  -2.8983  -2.8905  -2.8734  -2.8708  -2.8701  -2.8698  -2.8551
    -2.8506  -2.8124  -2.8118  -2.8115  -2.8075  -2.8071  -2.7891  -2.7888
    -2.7800  -2.7799  -2.7777  -2.7181  -2.7180  -2.7127  -2.7127  -2.7076
    -2.7075  -2.6793  -2.6204  -2.6191  -2.6186  -2.6169  -2.6055  -2.6032
    -2.5985  -2.5876  -2.5874  -2.5507  -2.5500  -2.5416  -2.5410  -2.5405
    -2.5402  -2.5008  -2.5005  -2.4908  -2.4907  -2.4892  -2.4889  -2.4471
    -2.4312  -2.4256  -2.3723  -2.3720  -2.3536  -2.3518  -2.3467  -2.3466
    -2.2981  -2.2974  -2.2743  -2.2578  -2.2437  -2.2429  -2.2426  -2.2208
    -2.2206  -2.2109  -2.1945  -2.1537  -2.1532  -2.1393  -2.1388  -2.1386
    -2.1278  -2.1276  -2.1125  -2.1121  -2.1118  -2.1077  -2.1028  -2.1021
    -2.1019  -2.0901  -2.0898  -2.0721  -2.0719  -2.0699  -2.0636  -2.0608
    -2.0606  -2.0369  -2.0366  -2.0254  -2.0233  -2.0189  -2.0184  -1.9803
    -1.9465  -1.9460  -1.9107  -1.8935  -1.8932  -1.8827  -1.8822  -1.8590
    -1.8586  -1.8442  -1.8438  -1.8423  -1.8422  -1.8393  -1.8388  -1.8067
    -1.8066  -1.8063  -1.7604  -1.7600  -1.7203  -1.7200  -1.6729  -1.6727
    -1.6605  -1.6379  -1.6330  -1.6301  -1.6140  -1.6119  -1.5948  -1.5943
    -1.5898  -1.5892  -1.5878  -1.5875  -1.5869  -1.5846  -1.5645  -1.5643
    -1.5543  -1.5364  -1.5175  -1.5175  -1.4909  -1.4907  -1.4882  -1.4877
    -1.4854  -1.4818  -1.4608  -1.4600  -1.4457  -1.4446  -1.4324  -1.4217
    -1.4083  -1.4078  -1.3770  -1.3767  -1.3697  -1.3688  -1.3340  -1.3331
    -1.3250  -1.3246  -1.3161  -1.3158  -1.2943  -1.2940  -1.2822  -1.2763
    -1.2754  -1.2726  -1.2621  -1.2616  -1.2613  -1.2567  -1.2469  -1.2365
    -1.2355  -1.2285  -1.2283  -1.2159  -1.2117  -1.2105  -1.2048  -1.1654
    -1.1636  -1.1587  -1.1560  -1.1554  -1.1550  -1.1161  -1.0994  -1.0986
    -1.0986  -1.0983  -1.0941  -1.0934  -1.0889  -1.0763  -1.0735  -1.0373
    -1.0368  -1.0298  -1.0298  -1.0069  -1.0068  -0.9969  -0.9672  -0.9595
    -0.9323  -0.9319  -0.9041  -0.9039  -0.9015  -0.9004  -0.8990  -0.8952
    -0.8916  -0.8899  -0.8854  -0.8851  -0.8532  -0.8529  -0.8352  -0.8342
    -0.8295  -0.8292  -0.8278  -0.8275  -0.8089  -0.5328  -0.5226  -0.4675
    -0.4656  -0.4276  -0.2666  -0.2017  -0.2013  -0.1703   0.1174   0.1178
     0.4468   0.4487   0.5465   0.5467   0.5875   0.5884   0.7306   0.7319
     0.8552   0.8571   0.9433   1.5426   1.5606   1.5616   1.6001   1.6064
     1.6475   1.6524   1.7303   1.7314   1.9381   1.9386   2.1718   2.2523
     2.2545   2.2693   2.6473   2.6518   2.7242   2.7245   2.7309   2.7315
     2.8825   2.8835   2.9268   3.0248   3.0275   3.2589   3.2592   3.3930
     3.4198   3.4207   3.6901   3.6922   3.8029   3.8235   3.8236   3.8729
     3.9005   4.0101   4.0113   4.2468   4.2486   4.3341   4.3362   4.4608
     4.4632   4.4791   4.4859   4.6035   4.8650   5.2707   5.3008   5.3891
     5.3922   5.4798   5.5705   5.5727   5.6077   5.6548   5.6825   5.6889
     5.6966   5.7406   5.7416   5.7849   5.9882   5.9935   6.0510   6.0668
     6.0726   6.0813   6.0841   6.0930   6.0931   6.1136   6.1399   6.1620

          k = 0.2500-0.2500-0.0833 (167653 PWs)   bands (ev):

   -19.2621  -7.0779  -6.8829  -6.3544  -6.3540  -5.9246  -5.5156  -5.4225
    -5.4221  -5.2263  -5.2263  -5.1087  -5.1081  -5.0299  -5.0069  -4.9339
    -4.8491  -4.8452  -4.8064  -4.8062  -4.6454  -4.6289  -4.6277  -4.6274
    -4.6204  -4.5648  -4.5647  -4.5529  -4.5526  -4.5159  -4.5033  -4.5028
    -4.4611  -4.4610  -4.4276  -4.4263  -4.3745  -4.3740  -4.3632  -4.3624
    -4.3569  -4.3438  -4.3438  -4.3026  -4.2845  -4.2843  -4.2774  -4.2772
    -4.2449  -4.1953  -4.1803  -4.1800  -4.1763  -4.1759  -4.1684  -4.1626
    -4.1623  -4.1622  -4.0972  -4.0966  -4.0474  -4.0470  -4.0347  -4.0087
    -4.0086  -3.9889  -3.9863  -3.9857  -3.9812  -3.9784  -3.9295  -3.9295
    -3.9165  -3.9162  -3.8112  -3.8107  -3.8050  -3.8046  -3.7675  -3.7585
    -3.7437  -3.7142  -3.7141  -3.6856  -3.6853  -3.6637  -3.6635  -3.6500
    -3.6496  -3.5951  -3.5949  -3.5768  -3.5605  -3.5494  -3.5480  -3.5479
    -3.5463  -3.5193  -3.5191  -3.4829  -3.4829  -3.4604  -3.4601  -3.4271
    -3.4269  -3.4087  -3.3814  -3.3813  -3.3440  -3.3438  -3.3086  -3.3010
    -3.3003  -3.2899  -3.2861  -3.2855  -3.2810  -3.2804  -3.2425  -3.2320
    -3.1915  -3.1914  -3.1836  -3.1740  -3.1734  -3.1718  -3.1475  -3.1475
    -3.1262  -3.1259  -3.1253  -3.0987  -3.0986  -3.0911  -3.0883  -3.0882
    -3.0520  -3.0480  -3.0126  -3.0123  -3.0115  -3.0086  -3.0085  -2.9295
    -2.9195  -2.9151  -2.9146  -2.9134  -2.9132  -2.9085  -2.9082  -2.9081
    -2.9078  -2.8983  -2.8905  -2.8734  -2.8708  -2.8701  -2.8698  -2.8551
    -2.8506  -2.8124  -2.8118  -2.8115  -2.8075  -2.8071  -2.7891  -2.7888
    -2.7800  -2.7799  -2.7777  -2.7181  -2.7180  -2.7127  -2.7127  -2.7076
    -2.7075  -2.6793  -2.6204  -2.6191  -2.6186  -2.6169  -2.6055  -2.6032
    -2.5985  -2.5876  -2.5874  -2.5507  -2.5500  -2.5416  -2.5410  -2.5405
    -2.5402  -2.5008  -2.5005  -2.4908  -2.4907  -2.4892  -2.4889  -2.4471
    -2.4312  -2.4256  -2.3723  -2.3720  -2.3536  -2.3518  -2.3467  -2.3466
    -2.2981  -2.2974  -2.2743  -2.2578  -2.2437  -2.2429  -2.2426  -2.2208
    -2.2206  -2.2109  -2.1945  -2.1537  -2.1532  -2.1393  -2.1388  -2.1386
    -2.1278  -2.1276  -2.1125  -2.1121  -2.1118  -2.1077  -2.1028  -2.1021
    -2.1019  -2.0901  -2.0898  -2.0721  -2.0719  -2.0699  -2.0636  -2.0608
    -2.0606  -2.0369  -2.0366  -2.0254  -2.0233  -2.0189  -2.0184  -1.9803
    -1.9465  -1.9460  -1.9107  -1.8935  -1.8932  -1.8827  -1.8822  -1.8590
    -1.8586  -1.8442  -1.8438  -1.8423  -1.8422  -1.8393  -1.8388  -1.8067
    -1.8066  -1.8063  -1.7604  -1.7600  -1.7203  -1.7200  -1.6729  -1.6727
    -1.6605  -1.6379  -1.6330  -1.6301  -1.6140  -1.6119  -1.5948  -1.5943
    -1.5898  -1.5892  -1.5878  -1.5875  -1.5869  -1.5846  -1.5645  -1.5643
    -1.5543  -1.5364  -1.5175  -1.5175  -1.4909  -1.4907  -1.4882  -1.4877
    -1.4854  -1.4818  -1.4608  -1.4600  -1.4457  -1.4446  -1.4324  -1.4217
    -1.4083  -1.4078  -1.3770  -1.3767  -1.3697  -1.3688  -1.3340  -1.3331
    -1.3250  -1.3246  -1.3161  -1.3158  -1.2943  -1.2940  -1.2822  -1.2763
    -1.2754  -1.2726  -1.2621  -1.2616  -1.2613  -1.2567  -1.2469  -1.2365
    -1.2355  -1.2285  -1.2283  -1.2159  -1.2117  -1.2105  -1.2048  -1.1654
    -1.1636  -1.1587  -1.1560  -1.1554  -1.1550  -1.1161  -1.0994  -1.0986
    -1.0986  -1.0983  -1.0941  -1.0934  -1.0889  -1.0763  -1.0735  -1.0373
    -1.0368  -1.0298  -1.0298  -1.0069  -1.0068  -0.9969  -0.9672  -0.9595
    -0.9323  -0.9319  -0.9041  -0.9039  -0.9015  -0.9004  -0.8990  -0.8952
    -0.8916  -0.8899  -0.8854  -0.8851  -0.8532  -0.8529  -0.8352  -0.8342
    -0.8295  -0.8292  -0.8278  -0.8275  -0.8089  -0.5328  -0.5226  -0.4675
    -0.4656  -0.4276  -0.2666  -0.2017  -0.2013  -0.1703   0.1174   0.1178
     0.4468   0.4487   0.5465   0.5467   0.5875   0.5884   0.7306   0.7319
     0.8552   0.8571   0.9433   1.5426   1.5606   1.5616   1.6001   1.6064
     1.6475   1.6524   1.7303   1.7314   1.9381   1.9386   2.1718   2.2523
     2.2545   2.2693   2.6473   2.6518   2.7242   2.7245   2.7309   2.7315
     2.8825   2.8835   2.9268   3.0248   3.0275   3.2589   3.2592   3.3930
     3.4198   3.4207   3.6901   3.6922   3.8029   3.8235   3.8236   3.8729
     3.9005   4.0101   4.0113   4.2468   4.2486   4.3341   4.3362   4.4608
     4.4632   4.4791   4.4859   4.6035   4.8649   5.2706   5.3010   5.3892
     5.3922   5.4797   5.5705   5.5727   5.6055   5.6551   5.6835   5.6887
     5.6982   5.7406   5.7416   5.7848   5.9898   5.9939   6.0509   6.0664
     6.0719   6.0813   6.0841   6.0930   6.0931   6.1133   6.1388   6.1601

          k =-0.2500 0.2500 0.2500 (167588 PWs)   bands (ev):

   -19.2621  -7.0779  -6.8829  -6.3544  -6.3540  -5.9246  -5.5156  -5.4225
    -5.4221  -5.2263  -5.2263  -5.1087  -5.1081  -5.0299  -5.0069  -4.9339
    -4.8491  -4.8452  -4.8064  -4.8062  -4.6454  -4.6290  -4.6277  -4.6274
    -4.6204  -4.5648  -4.5647  -4.5529  -4.5526  -4.5159  -4.5033  -4.5028
    -4.4611  -4.4610  -4.4276  -4.4263  -4.3745  -4.3740  -4.3632  -4.3624
    -4.3569  -4.3438  -4.3438  -4.3026  -4.2845  -4.2843  -4.2774  -4.2772
    -4.2449  -4.1953  -4.1803  -4.1799  -4.1763  -4.1759  -4.1684  -4.1626
    -4.1623  -4.1622  -4.0972  -4.0966  -4.0474  -4.0470  -4.0347  -4.0087
    -4.0085  -3.9889  -3.9863  -3.9857  -3.9812  -3.9784  -3.9295  -3.9295
    -3.9165  -3.9162  -3.8112  -3.8107  -3.8050  -3.8046  -3.7675  -3.7585
    -3.7437  -3.7142  -3.7141  -3.6856  -3.6853  -3.6637  -3.6635  -3.6500
    -3.6496  -3.5951  -3.5949  -3.5768  -3.5605  -3.5494  -3.5480  -3.5479
    -3.5463  -3.5193  -3.5191  -3.4829  -3.4829  -3.4604  -3.4601  -3.4271
    -3.4269  -3.4087  -3.3814  -3.3813  -3.3440  -3.3438  -3.3086  -3.3010
    -3.3003  -3.2899  -3.2861  -3.2855  -3.2810  -3.2804  -3.2425  -3.2320
    -3.1915  -3.1914  -3.1836  -3.1740  -3.1734  -3.1718  -3.1475  -3.1475
    -3.1262  -3.1259  -3.1253  -3.0987  -3.0986  -3.0911  -3.0883  -3.0882
    -3.0520  -3.0480  -3.0126  -3.0123  -3.0115  -3.0086  -3.0085  -2.9295
    -2.9195  -2.9151  -2.9146  -2.9134  -2.9132  -2.9085  -2.9082  -2.9081
    -2.9078  -2.8983  -2.8905  -2.8734  -2.8708  -2.8701  -2.8698  -2.8551
    -2.8506  -2.8124  -2.8118  -2.8115  -2.8075  -2.8071  -2.7891  -2.7888
    -2.7800  -2.7799  -2.7777  -2.7181  -2.7180  -2.7127  -2.7126  -2.7076
    -2.7075  -2.6793  -2.6204  -2.6191  -2.6186  -2.6169  -2.6055  -2.6032
    -2.5985  -2.5876  -2.5874  -2.5506  -2.5500  -2.5416  -2.5410  -2.5405
    -2.5402  -2.5008  -2.5005  -2.4908  -2.4907  -2.4892  -2.4889  -2.4471
    -2.4312  -2.4256  -2.3723  -2.3720  -2.3536  -2.3518  -2.3467  -2.3466
    -2.2981  -2.2974  -2.2743  -2.2579  -2.2437  -2.2429  -2.2426  -2.2208
    -2.2206  -2.2109  -2.1945  -2.1537  -2.1532  -2.1393  -2.1388  -2.1386
    -2.1278  -2.1276  -2.1125  -2.1121  -2.1118  -2.1077  -2.1028  -2.1021
    -2.1019  -2.0901  -2.0898  -2.0721  -2.0719  -2.0699  -2.0636  -2.0608
    -2.0606  -2.0369  -2.0366  -2.0254  -2.0233  -2.0189  -2.0184  -1.9803
    -1.9465  -1.9460  -1.9107  -1.8935  -1.8932  -1.8827  -1.8822  -1.8590
    -1.8586  -1.8442  -1.8438  -1.8423  -1.8422  -1.8393  -1.8388  -1.8067
    -1.8066  -1.8063  -1.7604  -1.7600  -1.7203  -1.7200  -1.6729  -1.6727
    -1.6606  -1.6379  -1.6330  -1.6301  -1.6140  -1.6119  -1.5948  -1.5943
    -1.5898  -1.5892  -1.5878  -1.5875  -1.5869  -1.5846  -1.5645  -1.5643
    -1.5543  -1.5364  -1.5175  -1.5175  -1.4909  -1.4907  -1.4882  -1.4877
    -1.4854  -1.4818  -1.4608  -1.4599  -1.4457  -1.4446  -1.4324  -1.4217
    -1.4083  -1.4078  -1.3770  -1.3767  -1.3697  -1.3688  -1.3340  -1.3331
    -1.3250  -1.3246  -1.3161  -1.3158  -1.2943  -1.2940  -1.2822  -1.2763
    -1.2754  -1.2726  -1.2621  -1.2616  -1.2613  -1.2567  -1.2469  -1.2365
    -1.2356  -1.2285  -1.2283  -1.2159  -1.2117  -1.2105  -1.2048  -1.1654
    -1.1636  -1.1587  -1.1560  -1.1554  -1.1550  -1.1161  -1.0994  -1.0986
    -1.0986  -1.0983  -1.0941  -1.0934  -1.0889  -1.0763  -1.0735  -1.0373
    -1.0368  -1.0298  -1.0298  -1.0069  -1.0067  -0.9969  -0.9672  -0.9595
    -0.9323  -0.9319  -0.9041  -0.9039  -0.9015  -0.9005  -0.8990  -0.8952
    -0.8916  -0.8899  -0.8854  -0.8851  -0.8532  -0.8529  -0.8352  -0.8342
    -0.8295  -0.8292  -0.8278  -0.8275  -0.8089  -0.5328  -0.5226  -0.4675
    -0.4656  -0.4276  -0.2666  -0.2017  -0.2013  -0.1703   0.1174   0.1178
     0.4468   0.4487   0.5465   0.5467   0.5875   0.5885   0.7306   0.7319
     0.8552   0.8571   0.9433   1.5426   1.5606   1.5616   1.6001   1.6064
     1.6475   1.6525   1.7303   1.7314   1.9381   1.9386   2.1718   2.2523
     2.2545   2.2693   2.6473   2.6517   2.7242   2.7245   2.7309   2.7315
     2.8825   2.8835   2.9268   3.0248   3.0275   3.2589   3.2592   3.3930
     3.4198   3.4207   3.6901   3.6922   3.8029   3.8235   3.8236   3.8730
     3.9006   4.0101   4.0113   4.2467   4.2486   4.3341   4.3362   4.4608
     4.4632   4.4790   4.4859   4.6035   4.8622   5.2706   5.2986   5.3888
     5.3919   5.4682   5.5705   5.5727   5.6097   5.6480   5.6874   5.6889
     5.7380   5.7408   5.7417   5.7850   5.9939   6.0161   6.0517   6.0694
     6.0807   6.0835   6.0927   6.0931   6.0951   6.1195   6.1376   6.1749

     the Fermi energy is     0.8056 ev

!    total energy              =   -7425.29017714 Ry
     Harris-Foulkes estimate   =   -7425.29017713 Ry
     estimated scf accuracy    <          7.2E-09 Ry

     The total energy is the sum of the following terms:

     one-electron contribution =  -48413.98620756 Ry
     hartree contribution      =   24756.13887699 Ry
     xc contribution           =   -3604.19548704 Ry
     ewald contribution        =   19836.75556082 Ry
     smearing contrib. (-TS)   =      -0.00292034 Ry

     convergence has been achieved in  28 iterations

     Writing output data file 6712849.save

     init_run     :    152.92s CPU    164.00s WALL (       1 calls)
     electrons    :   9535.85s CPU  10327.97s WALL (       1 calls)

     Called by init_run:
     wfcinit      :    123.63s CPU    133.76s WALL (       1 calls)
     potinit      :      7.27s CPU      7.81s WALL (       1 calls)

     Called by electrons:
     c_bands      :   7738.05s CPU   8429.07s WALL (      29 calls)
     sum_band     :   1199.11s CPU   1279.04s WALL (      29 calls)
     v_of_rho     :    122.53s CPU    136.59s WALL (      29 calls)
     newd         :    486.46s CPU    492.84s WALL (      29 calls)
     mix_rho      :      3.68s CPU      4.11s WALL (      29 calls)
     vdW_energy   :     12.37s CPU     14.58s WALL (      29 calls)
     vdW_ffts     :     58.74s CPU     65.21s WALL (      58 calls)
     vdW_v        :     15.67s CPU     16.65s WALL (      29 calls)

     Called by c_bands:
     init_us_2    :     25.41s CPU     25.70s WALL (     354 calls)
     cegterg      :   7465.45s CPU   8154.54s WALL (     174 calls)

     Called by *egterg:
     h_psi        :   2911.44s CPU   3288.77s WALL (     887 calls)
     s_psi        :    378.90s CPU    389.21s WALL (     887 calls)
     g_psi        :      4.83s CPU      4.89s WALL (     707 calls)
     cdiaghg      :   1531.97s CPU   1536.44s WALL (     875 calls)

     Called by h_psi:
     add_vuspsi   :    385.34s CPU    406.96s WALL (     887 calls)

     General routines
     calbec       :   1114.40s CPU   1118.32s WALL (    1061 calls)
     fft          :    165.36s CPU    176.74s WALL (    1914 calls)
     ffts         :      1.73s CPU      2.07s WALL (      58 calls)
     fftw         :   1674.03s CPU   2033.64s WALL (  465862 calls)
     interpolate  :      4.78s CPU      5.77s WALL (      58 calls)
     davcio       :      0.01s CPU      0.22s WALL (       6 calls)

     Parallel routines
     fft_scatter  :   1235.64s CPU   1498.26s WALL (  467834 calls)

     PWSCF        :     2h41m CPU        2h55m WALL


   This run was terminated on:   3:24:22   2Jul2015            

=------------------------------------------------------------------------------=
   JOB DONE.
=------------------------------------------------------------------------------=
