
     Program PWSCF v.5.1.2 starts on 23Aug2015 at 23:10:20 

     This program is part of the open-source Quantum ESPRESSO suite
     for quantum simulation of materials; please cite
         "P. Giannozzi et al., J. Phys.:Condens. Matter 21 395502 (2009);
          URL http://www.quantum-espresso.org", 
     in publications or presentations arising from this work. More details at
     http://www.quantum-espresso.org/quote

     Parallel version (MPI), running on    32 processors
     R & G space division:  proc/nbgrp/npool/nimage =      32
     Reading input from bridge.H2.Au6165.d.2.3.phi.0.psi.0.in
Warning: card &IONS ignored
Warning: card / ignored
Warning: card &CELL ignored
Warning: card / ignored

     Current dimensions of program PWSCF are:
     Max number of different atomic species (ntypx) = 10
     Max number of k-points (npk) =  40000
     Max angular momentum in pseudopotentials (lmaxx) =  3

     IMPORTANT: XC functional enforced from input :
     Exchange-correlation      = VDW-DF ( 1  4  4  0 1 0)
     Any further DFT definition will be discarded
     Please, verify this is what you really want


     Subspace diagonalization in iterative solution of the eigenvalue problem:
     a serial algorithm will be used


     Parallelization info
     --------------------
     sticks:   dense  smooth     PW     G-vecs:    dense   smooth      PW
     Min         578     289     74               118518    41891    5486
     Max         579     290     75               118533    41932    5497
     Sum       18505    9265   2385              3792731  1341081  175711


     Title: 
     bridge.H2.Au6165.d.2.3.phi.0.psi.0                                         


     bravais-lattice index     =            8
     lattice parameter (alat)  =      24.1233  a.u.
     unit-cell volume          =   28076.2361 (a.u.)^3
     number of atoms/cell      =           75
     number of atomic types    =            3
     number of electrons       =       800.00
     number of Kohn-Sham states=          480
     kinetic-energy cutoff     =      50.0000  Ry
     charge density cutoff     =     400.0000  Ry
     convergence threshold     =      1.0E-08
     mixing beta               =       0.7000
     number of iterations used =            8  plain     mixing
     Exchange-correlation      = VDW-DF ( 1  4  4  0 1 0)

     celldm(1)=  24.123277  celldm(2)=   1.000000  celldm(3)=   2.000000
     celldm(4)=   0.000000  celldm(5)=   0.000000  celldm(6)=   0.000000

     crystal axes: (cart. coord. in units of alat)
               a(1) = (   1.000000   0.000000   0.000000 )  
               a(2) = (   0.000000   1.000000   0.000000 )  
               a(3) = (   0.000000   0.000000   2.000000 )  

     reciprocal axes: (cart. coord. in units 2 pi/alat)
               b(1) = (  1.000000  0.000000  0.000000 )  
               b(2) = (  0.000000  1.000000  0.000000 )  
               b(3) = (  0.000000  0.000000  0.500000 )  


     PseudoPot. # 1 for Au read from file:
     /home/scc/andrejb/qe/pseudo/Au.pbe-nd-van.UPF
     MD5 check sum: 458681b50f36d87ef23c61b04bba420a
     Pseudo is Ultrasoft + core correction, Zval = 11.0
     Generated by new atomic code, or converted to UPF format
     Using radial grid of  985 points,  3 beta functions with: 
                l(1) =   1
                l(2) =   2
                l(3) =   2
     Q(r) pseudized with  8 coefficients,  rinner =    1.100   1.100   1.100
                                                       1.100   1.100

     PseudoPot. # 2 for H  read from file:
     /home/scc/andrejb/qe/pseudo/H.pbe-van_ak.UPF
     MD5 check sum: 403db7282739603aa925980fa9b8608d
     Pseudo is Ultrasoft, Zval =  1.0
     Generated by new atomic code, or converted to UPF format
     Using radial grid of  615 points,  1 beta functions with: 
                l(1) =   0
     Q(r) pseudized with  8 coefficients,  rinner =    0.800

     PseudoPot. # 3 for O  read from file:
     /home/scc/andrejb/qe/pseudo/O.pbe-van_ak.UPF
     MD5 check sum: 4b8c549914a63cae506c6ff22b5af4fe
     Pseudo is Ultrasoft, Zval =  6.0
     Generated by new atomic code, or converted to UPF format
     Using radial grid of  737 points,  4 beta functions with: 
                l(1) =   0
                l(2) =   0
                l(3) =   1
                l(4) =   1
     Q(r) pseudized with  8 coefficients,  rinner =    0.800   0.800   0.800


     vdW kernel table read from file vdW_kernel_table
     MD5 check sum: 48e77a2e26edf626eeb0eaa751ad5cac

     atomic species   valence    mass     pseudopotential
        Au            11.00   196.96657     Au( 1.00)
        H              1.00     1.01000     H ( 1.00)
        O              6.00    16.00000     O ( 1.00)

     No symmetry found



   Cartesian axes

     site n.     atom                  positions (alat units)
         1           O   tau(   1) = (   0.2673116   0.4310139   0.7523473  )
         2           H   tau(   2) = (   0.2499161   0.4165269   0.6794918  )
         3           H   tau(   3) = (   0.2174848   0.3895358   0.7925380  )
         4           Au  tau(   4) = (   0.0000000   0.0000000   0.0000000  )
         5           Au  tau(   5) = (   0.3332217   0.0000000   0.0000000  )
         6           Au  tau(   6) = (   0.6664434   0.0000000   0.0000000  )
         7           Au  tau(   7) = (   0.1666109   0.1666109   0.0000000  )
         8           Au  tau(   8) = (   0.4998326   0.1666109   0.0000000  )
         9           Au  tau(   9) = (   0.8330542   0.1666109   0.0000000  )
        10           Au  tau(  10) = (   0.0000000   0.3332217   0.0000000  )
        11           Au  tau(  11) = (   0.3332217   0.3332217   0.0000000  )
        12           Au  tau(  12) = (   0.6664434   0.3332217   0.0000000  )
        13           Au  tau(  13) = (   0.1666109   0.4998326   0.0000000  )
        14           Au  tau(  14) = (   0.4998326   0.4998326   0.0000000  )
        15           Au  tau(  15) = (   0.8330542   0.4998326   0.0000000  )
        16           Au  tau(  16) = (   0.0000000   0.6664434   0.0000000  )
        17           Au  tau(  17) = (   0.3332217   0.6664434   0.0000000  )
        18           Au  tau(  18) = (   0.6664434   0.6664434   0.0000000  )
        19           Au  tau(  19) = (   0.1666109   0.8330542   0.0000000  )
        20           Au  tau(  20) = (   0.4998326   0.8330542   0.0000000  )
        21           Au  tau(  21) = (   0.8330542   0.8330542   0.0000000  )
        22           Au  tau(  22) = (   0.1666109   0.0000000   0.1666109  )
        23           Au  tau(  23) = (   0.4998326   0.0000000   0.1666109  )
        24           Au  tau(  24) = (   0.8330542   0.0000000   0.1666109  )
        25           Au  tau(  25) = (   0.0000000   0.1666109   0.1666109  )
        26           Au  tau(  26) = (   0.3332217   0.1666109   0.1666109  )
        27           Au  tau(  27) = (   0.6664434   0.1666109   0.1666109  )
        28           Au  tau(  28) = (   0.1666109   0.3332217   0.1666109  )
        29           Au  tau(  29) = (   0.4998326   0.3332217   0.1666109  )
        30           Au  tau(  30) = (   0.8330542   0.3332217   0.1666109  )
        31           Au  tau(  31) = (   0.0000000   0.4998326   0.1666109  )
        32           Au  tau(  32) = (   0.3332217   0.4998326   0.1666109  )
        33           Au  tau(  33) = (   0.6664434   0.4998326   0.1666109  )
        34           Au  tau(  34) = (   0.1666109   0.6664434   0.1666109  )
        35           Au  tau(  35) = (   0.4998326   0.6664434   0.1666109  )
        36           Au  tau(  36) = (   0.8330542   0.6664434   0.1666109  )
        37           Au  tau(  37) = (   0.0000000   0.8330542   0.1666109  )
        38           Au  tau(  38) = (   0.3332217   0.8330542   0.1666109  )
        39           Au  tau(  39) = (   0.6664434   0.8330542   0.1666109  )
        40           Au  tau(  40) = (  -0.0000182  -0.0000182   0.3335478  )
        41           Au  tau(  41) = (   0.3332215  -0.0000181   0.3335473  )
        42           Au  tau(  42) = (   0.6664447  -0.0000183   0.3335481  )
        43           Au  tau(  43) = (  -0.0000181   0.3332215   0.3335473  )
        44           Au  tau(  44) = (   0.3332215   0.3332215   0.3335468  )
        45           Au  tau(  45) = (   0.6664445   0.3332215   0.3335477  )
        46           Au  tau(  46) = (  -0.0000183   0.6664447   0.3335481  )
        47           Au  tau(  47) = (   0.3332215   0.6664445   0.3335477  )
        48           Au  tau(  48) = (   0.6664446   0.6664446   0.3335486  )
        49           Au  tau(  49) = (   0.1666097   0.1666097   0.3335483  )
        50           Au  tau(  50) = (   0.4998320   0.1666098   0.3335477  )
        51           Au  tau(  51) = (   0.8330732   0.1666096   0.3335480  )
        52           Au  tau(  52) = (   0.1666098   0.4998320   0.3335477  )
        53           Au  tau(  53) = (   0.4998322   0.4998322   0.3335470  )
        54           Au  tau(  54) = (   0.8330731   0.4998322   0.3335474  )
        55           Au  tau(  55) = (   0.1666096   0.8330732   0.3335480  )
        56           Au  tau(  56) = (   0.4998322   0.8330731   0.3335474  )
        57           Au  tau(  57) = (   0.8330731   0.8330731   0.3335478  )
        58           Au  tau(  58) = (   0.1666104  -0.0000111   0.4993095  )
        59           Au  tau(  59) = (   0.4998323  -0.0000112   0.4993099  )
        60           Au  tau(  60) = (   0.8330660  -0.0000111   0.4993009  )
        61           Au  tau(  61) = (  -0.0000111   0.1666104   0.4993095  )
        62           Au  tau(  62) = (   0.3332213   0.1666106   0.4993185  )
        63           Au  tau(  63) = (   0.6664437   0.1666106   0.4993187  )
        64           Au  tau(  64) = (   0.1666106   0.3332213   0.4993185  )
        65           Au  tau(  65) = (   0.4998324   0.3332216   0.4993185  )
        66           Au  tau(  66) = (   0.8330658   0.3332215   0.4993102  )
        67           Au  tau(  67) = (  -0.0000112   0.4998323   0.4993099  )
        68           Au  tau(  68) = (   0.3332216   0.4998324   0.4993185  )
        69           Au  tau(  69) = (   0.6664437   0.4998325   0.4993187  )
        70           Au  tau(  70) = (   0.1666106   0.6664437   0.4993187  )
        71           Au  tau(  71) = (   0.4998325   0.6664437   0.4993187  )
        72           Au  tau(  72) = (   0.8330658   0.6664438   0.4993102  )
        73           Au  tau(  73) = (  -0.0000111   0.8330660   0.4993009  )
        74           Au  tau(  74) = (   0.3332215   0.8330658   0.4993102  )
        75           Au  tau(  75) = (   0.6664438   0.8330658   0.4993102  )

     number of k points=     6  Marzari-Vanderbilt smearing, width (Ry)=  0.0200
                       cart. coord. in units 2pi/alat
        k(    1) = (   0.2500000   0.2500000   0.0833333), wk =   0.3333333
        k(    2) = (   0.2500000   0.2500000  -0.2500000), wk =   0.3333333
        k(    3) = (  -0.2500000  -0.2500000   0.0833333), wk =   0.3333333
        k(    4) = (  -0.2500000   0.2500000  -0.0833333), wk =   0.3333333
        k(    5) = (   0.2500000  -0.2500000  -0.0833333), wk =   0.3333333
        k(    6) = (  -0.2500000   0.2500000   0.2500000), wk =   0.3333333

     Dense  grid:  3792731 G-vectors     FFT dimensions: ( 160, 160, 320)

     Smooth grid:  1341081 G-vectors     FFT dimensions: ( 120, 120, 225)

     Largest allocated arrays     est. size (Mb)     dimensions
        Kohn-Sham Wavefunctions        38.58 Mb     (    5267,  480)
        NL pseudopotentials            76.03 Mb     (    5267,  946)
        Each V/rho on FFT grid          3.91 Mb     (  256000)
        Each G-vector array             0.90 Mb     (  118520)
        G-vector shells                 0.08 Mb     (   10286)
     Largest temporary arrays     est. size (Mb)     dimensions
        Auxiliary wavefunctions       154.31 Mb     (    5267, 1920)
        Each subspace H/S matrix       56.25 Mb     (    1920, 1920)
        Each <psi_i|beta_j> matrix      6.93 Mb     (     946,  480)
        Arrays for rho mixing          31.25 Mb     (  256000,    8)

     Initial potential from superposition of free atoms
     Check: negative starting charge=   -1.945112

     starting charge  799.16392, renormalised to  800.00000

     negative rho (up, down):  1.947E+00 0.000E+00


     ************************************************************************
     *
     * You are using vdW-DF for exchange-correlation in this calculation.
     * Please cite the following three references that made this development
     * possible:
     *
     *   M. Dion, H. Rydberg, E. Schroder, D. C. Langreth, and
     *   B. I. Lundqvist, Phys. Rev. Lett. 92, 246401 (2004).
     *
     *   T. Thonhauser, V. R. Cooper, S. Li, A. Puzder, P. Hyldgaard, and
     *   D. C. Langreth, Phys. Rev. B 76, 125112 (2007).
     *
     *   G. Roman-Perez and J. M. Soler, Phys. Rev. Lett. 103, 096102 (2009).
     *
     *
     * If you are using vdW-DF2, please also cite:
     *
     *   K. Lee, E. D. Murray, L. Kong, B. I. Lundqvist, and
     *   D. C. Langreth, Phys. Rev. B 82, 081101(R) (2010).
     *
     *
     * If you are calculating the stress with vdW-DF, please also cite:
     *
     *   R. Sabatini, E. Kucukbenli, B. Kolb, T. Thonhauser, and
     *   S. de Gironcoli, J. Phys.: Condens. Matter 24, 424209 (2012).
     *
     ************************************************************************

     Carrying out vdW-DF run using the following parameters:

     Nqs =      20    Nr_points =    1024   r_max =   100.000
     q_mesh =
               0.00001000     0.04494208     0.09755937     0.15916263
               0.23128650     0.31572767     0.41458969     0.53033537
               0.66584808     0.82450364     1.01025438     1.22772762
               1.48234092     1.78043706     2.12944203     2.53805004
               3.01644009     3.57652955     4.23227104     5.00000000

     Gradients computed in reciprocal space

     ************************************************************************


     Starting wfc are  654 randomized atomic wfcs

     total cpu time spent up to now is      115.3 secs

     Self-consistent Calculation

     iteration #  1     ecut=    50.00 Ry     beta=0.70
     Davidson diagonalization with overlap
     ethr =  1.00E-02,  avg # of iterations =  3.0

     Threshold (ethr) on eigenvalues was too large:
     Diagonalizing with lowered threshold

     Davidson diagonalization with overlap
     ethr =  4.19E-04,  avg # of iterations =  2.0

     negative rho (up, down):  1.947E+00 0.000E+00

     total cpu time spent up to now is      516.1 secs

     total energy              =   -7423.05071330 Ry
     Harris-Foulkes estimate   =   -7426.06763696 Ry
     estimated scf accuracy    <       3.72892932 Ry

     iteration #  2     ecut=    50.00 Ry     beta=0.70
     Davidson diagonalization with overlap
     ethr =  4.66E-04,  avg # of iterations = 11.3

     negative rho (up, down):  1.943E+00 0.000E+00

     total cpu time spent up to now is     1213.8 secs

     total energy              =   -7415.33127201 Ry
     Harris-Foulkes estimate   =   -7432.55095794 Ry
     estimated scf accuracy    <      89.23848734 Ry

     iteration #  3     ecut=    50.00 Ry     beta=0.70
     Davidson diagonalization with overlap
     ethr =  4.66E-04,  avg # of iterations =  6.0

     negative rho (up, down):  1.953E+00 0.000E+00

     total cpu time spent up to now is     1656.0 secs

     total energy              =   -7424.07157174 Ry
     Harris-Foulkes estimate   =   -7425.89273773 Ry
     estimated scf accuracy    <       7.73202736 Ry

     iteration #  4     ecut=    50.00 Ry     beta=0.70
     Davidson diagonalization with overlap
     ethr =  4.66E-04,  avg # of iterations =  5.0

     negative rho (up, down):  1.956E+00 0.000E+00

     total cpu time spent up to now is     1901.7 secs

     total energy              =   -7424.81597016 Ry
     Harris-Foulkes estimate   =   -7425.68414954 Ry
     estimated scf accuracy    <       4.78101841 Ry

     iteration #  5     ecut=    50.00 Ry     beta=0.70
     Davidson diagonalization with overlap
     ethr =  4.66E-04,  avg # of iterations =  5.0

     negative rho (up, down):  1.963E+00 0.000E+00

     total cpu time spent up to now is     2147.9 secs

     total energy              =   -7425.08235134 Ry
     Harris-Foulkes estimate   =   -7425.58244380 Ry
     estimated scf accuracy    <       3.78415999 Ry

     iteration #  6     ecut=    50.00 Ry     beta=0.70
     Davidson diagonalization with overlap
     ethr =  4.66E-04,  avg # of iterations =  2.3

     negative rho (up, down):  1.967E+00 0.000E+00

     total cpu time spent up to now is     2351.6 secs

     total energy              =   -7425.28034876 Ry
     Harris-Foulkes estimate   =   -7425.33397010 Ry
     estimated scf accuracy    <       0.18546150 Ry

     iteration #  7     ecut=    50.00 Ry     beta=0.70
     Davidson diagonalization with overlap
     ethr =  2.32E-05,  avg # of iterations =  7.2

     negative rho (up, down):  1.970E+00 0.000E+00

     total cpu time spent up to now is     2642.3 secs

     total energy              =   -7425.28247444 Ry
     Harris-Foulkes estimate   =   -7425.33138493 Ry
     estimated scf accuracy    <       0.25721711 Ry

     iteration #  8     ecut=    50.00 Ry     beta=0.70
     Davidson diagonalization with overlap
     ethr =  2.32E-05,  avg # of iterations =  3.0

     negative rho (up, down):  1.971E+00 0.000E+00

     total cpu time spent up to now is     2858.1 secs

     total energy              =   -7425.29238555 Ry
     Harris-Foulkes estimate   =   -7425.31094284 Ry
     estimated scf accuracy    <       0.07832530 Ry

     iteration #  9     ecut=    50.00 Ry     beta=0.70
     Davidson diagonalization with overlap
     ethr =  9.79E-06,  avg # of iterations = 10.2

     negative rho (up, down):  1.972E+00 0.000E+00

     total cpu time spent up to now is     3166.4 secs

     total energy              =   -7425.29232026 Ry
     Harris-Foulkes estimate   =   -7425.30301744 Ry
     estimated scf accuracy    <       0.03747614 Ry

     iteration # 10     ecut=    50.00 Ry     beta=0.70
     Davidson diagonalization with overlap
     ethr =  4.68E-06,  avg # of iterations =  4.3

     negative rho (up, down):  1.973E+00 0.000E+00

     total cpu time spent up to now is     3399.5 secs

     total energy              =   -7425.29295609 Ry
     Harris-Foulkes estimate   =   -7425.29660730 Ry
     estimated scf accuracy    <       0.01168582 Ry

     iteration # 11     ecut=    50.00 Ry     beta=0.70
     Davidson diagonalization with overlap
     ethr =  1.46E-06,  avg # of iterations =  6.5

     negative rho (up, down):  1.974E+00 0.000E+00

     total cpu time spent up to now is     3658.4 secs

     total energy              =   -7425.29300715 Ry
     Harris-Foulkes estimate   =   -7425.29455117 Ry
     estimated scf accuracy    <       0.00544778 Ry

     iteration # 12     ecut=    50.00 Ry     beta=0.70
     Davidson diagonalization with overlap
     ethr =  6.81E-07,  avg # of iterations =  3.2

     negative rho (up, down):  1.975E+00 0.000E+00

     total cpu time spent up to now is     3871.5 secs

     total energy              =   -7425.29227675 Ry
     Harris-Foulkes estimate   =   -7425.29351233 Ry
     estimated scf accuracy    <       0.00184926 Ry

     iteration # 13     ecut=    50.00 Ry     beta=0.70
     Davidson diagonalization with overlap
     ethr =  2.31E-07,  avg # of iterations =  6.8

     negative rho (up, down):  1.974E+00 0.000E+00

     total cpu time spent up to now is     4243.1 secs

     total energy              =   -7425.29172573 Ry
     Harris-Foulkes estimate   =   -7425.29400414 Ry
     estimated scf accuracy    <       0.01034000 Ry

     iteration # 14     ecut=    50.00 Ry     beta=0.70
     Davidson diagonalization with overlap
     ethr =  2.31E-07,  avg # of iterations =  3.0

     negative rho (up, down):  1.974E+00 0.000E+00

     total cpu time spent up to now is     4507.7 secs

     total energy              =   -7425.29269506 Ry
     Harris-Foulkes estimate   =   -7425.29300613 Ry
     estimated scf accuracy    <       0.00138531 Ry

     iteration # 15     ecut=    50.00 Ry     beta=0.70
     Davidson diagonalization with overlap
     ethr =  1.73E-07,  avg # of iterations =  2.0

     negative rho (up, down):  1.974E+00 0.000E+00

     total cpu time spent up to now is     4711.1 secs

     total energy              =   -7425.29279692 Ry
     Harris-Foulkes estimate   =   -7425.29292151 Ry
     estimated scf accuracy    <       0.00053360 Ry

     iteration # 16     ecut=    50.00 Ry     beta=0.70
     Davidson diagonalization with overlap
     ethr =  6.67E-08,  avg # of iterations =  2.0

     negative rho (up, down):  1.974E+00 0.000E+00

     total cpu time spent up to now is     4914.1 secs

     total energy              =   -7425.29276635 Ry
     Harris-Foulkes estimate   =   -7425.29300146 Ry
     estimated scf accuracy    <       0.00201380 Ry

     iteration # 17     ecut=    50.00 Ry     beta=0.70
     Davidson diagonalization with overlap
     ethr =  6.67E-08,  avg # of iterations =  1.8

     negative rho (up, down):  1.974E+00 0.000E+00

     total cpu time spent up to now is     5122.6 secs

     total energy              =   -7425.29287518 Ry
     Harris-Foulkes estimate   =   -7425.29288984 Ry
     estimated scf accuracy    <       0.00004408 Ry

     iteration # 18     ecut=    50.00 Ry     beta=0.70
     Davidson diagonalization with overlap
     ethr =  5.51E-09,  avg # of iterations =  2.0

     negative rho (up, down):  1.974E+00 0.000E+00

     total cpu time spent up to now is     5333.2 secs

     total energy              =   -7425.29288129 Ry
     Harris-Foulkes estimate   =   -7425.29288748 Ry
     estimated scf accuracy    <       0.00002786 Ry

     iteration # 19     ecut=    50.00 Ry     beta=0.70
     Davidson diagonalization with overlap
     ethr =  3.48E-09,  avg # of iterations =  2.0

     negative rho (up, down):  1.974E+00 0.000E+00

     total cpu time spent up to now is     5537.6 secs

     total energy              =   -7425.29288330 Ry
     Harris-Foulkes estimate   =   -7425.29288663 Ry
     estimated scf accuracy    <       0.00001501 Ry

     iteration # 20     ecut=    50.00 Ry     beta=0.70
     Davidson diagonalization with overlap
     ethr =  1.88E-09,  avg # of iterations =  2.0

     negative rho (up, down):  1.974E+00 0.000E+00

     total cpu time spent up to now is     5744.1 secs

     total energy              =   -7425.29288487 Ry
     Harris-Foulkes estimate   =   -7425.29288556 Ry
     estimated scf accuracy    <       0.00000242 Ry

     iteration # 21     ecut=    50.00 Ry     beta=0.70
     Davidson diagonalization with overlap
     ethr =  3.03E-10,  avg # of iterations =  2.0

     negative rho (up, down):  1.974E+00 0.000E+00

     total cpu time spent up to now is     5953.2 secs

     total energy              =   -7425.29288523 Ry
     Harris-Foulkes estimate   =   -7425.29288554 Ry
     estimated scf accuracy    <       0.00000148 Ry

     iteration # 22     ecut=    50.00 Ry     beta=0.70
     Davidson diagonalization with overlap
     ethr =  1.85E-10,  avg # of iterations =  3.0

     negative rho (up, down):  1.974E+00 0.000E+00

     total cpu time spent up to now is     6171.6 secs

     total energy              =   -7425.29288544 Ry
     Harris-Foulkes estimate   =   -7425.29288552 Ry
     estimated scf accuracy    <       0.00000037 Ry

     iteration # 23     ecut=    50.00 Ry     beta=0.70
     Davidson diagonalization with overlap
     ethr =  4.69E-11,  avg # of iterations =  3.0

     negative rho (up, down):  1.974E+00 0.000E+00

     total cpu time spent up to now is     6401.3 secs

     total energy              =   -7425.29288547 Ry
     Harris-Foulkes estimate   =   -7425.29288553 Ry
     estimated scf accuracy    <       0.00000017 Ry

     iteration # 24     ecut=    50.00 Ry     beta=0.70
     Davidson diagonalization with overlap
     ethr =  2.16E-11,  avg # of iterations =  2.0

     negative rho (up, down):  1.974E+00 0.000E+00

     total cpu time spent up to now is     6627.0 secs

     total energy              =   -7425.29288551 Ry
     Harris-Foulkes estimate   =   -7425.29288553 Ry
     estimated scf accuracy    <       0.00000020 Ry

     iteration # 25     ecut=    50.00 Ry     beta=0.70
     Davidson diagonalization with overlap
     ethr =  2.16E-11,  avg # of iterations =  2.0

     negative rho (up, down):  1.974E+00 0.000E+00

     total cpu time spent up to now is     6828.1 secs

     total energy              =   -7425.29288553 Ry
     Harris-Foulkes estimate   =   -7425.29288554 Ry
     estimated scf accuracy    <       0.00000012 Ry

     iteration # 26     ecut=    50.00 Ry     beta=0.70
     Davidson diagonalization with overlap
     ethr =  1.54E-11,  avg # of iterations =  2.0

     negative rho (up, down):  1.974E+00 0.000E+00

     total cpu time spent up to now is     7025.0 secs

     total energy              =   -7425.29288555 Ry
     Harris-Foulkes estimate   =   -7425.29288555 Ry
     estimated scf accuracy    <       0.00000005 Ry

     iteration # 27     ecut=    50.00 Ry     beta=0.70
     Davidson diagonalization with overlap
     ethr =  6.20E-12,  avg # of iterations =  2.0

     negative rho (up, down):  1.974E+00 0.000E+00

     total cpu time spent up to now is     7230.7 secs

     total energy              =   -7425.29288555 Ry
     Harris-Foulkes estimate   =   -7425.29288556 Ry
     estimated scf accuracy    <       0.00000008 Ry

     iteration # 28     ecut=    50.00 Ry     beta=0.70
     Davidson diagonalization with overlap
     ethr =  6.20E-12,  avg # of iterations =  2.0

     negative rho (up, down):  1.974E+00 0.000E+00

     total cpu time spent up to now is     7436.7 secs

     total energy              =   -7425.29288556 Ry
     Harris-Foulkes estimate   =   -7425.29288555 Ry
     estimated scf accuracy    <       0.00000001 Ry

     iteration # 29     ecut=    50.00 Ry     beta=0.70
     Davidson diagonalization with overlap
     ethr =  1.29E-12,  avg # of iterations =  2.0

     negative rho (up, down):  1.974E+00 0.000E+00

     total cpu time spent up to now is     7645.9 secs

     End of self-consistent calculation

          k = 0.2500 0.2500 0.0833 (167653 PWs)   bands (ev):

   -19.1671  -7.0561  -6.8702  -6.3443  -6.3436  -5.9149  -5.5056  -5.4135
    -5.4118  -5.2169  -5.2164  -5.0999  -5.0976  -5.0203  -4.9973  -4.9243
    -4.8394  -4.8357  -4.7972  -4.7963  -4.6361  -4.6194  -4.6186  -4.6172
    -4.6107  -4.5552  -4.5551  -4.5440  -4.5424  -4.5063  -4.4948  -4.4924
    -4.4517  -4.4512  -4.4181  -4.4166  -4.3667  -4.3636  -4.3542  -4.3529
    -4.3472  -4.3342  -4.3340  -4.2932  -4.2753  -4.2744  -4.2679  -4.2673
    -4.2355  -4.1863  -4.1712  -4.1699  -4.1697  -4.1656  -4.1587  -4.1534
    -4.1530  -4.1522  -4.0905  -4.0863  -4.0393  -4.0366  -4.0253  -4.0006
    -3.9987  -3.9809  -3.9765  -3.9758  -3.9717  -3.9691  -3.9201  -3.9197
    -3.9076  -3.9061  -3.8030  -3.8005  -3.7976  -3.7942  -3.7578  -3.7509
    -3.7342  -3.7049  -3.7046  -3.6766  -3.6749  -3.6561  -3.6537  -3.6416
    -3.6393  -3.5862  -3.5849  -3.5679  -3.5511  -3.5404  -3.5396  -3.5381
    -3.5378  -3.5119  -3.5097  -3.4738  -3.4736  -3.4527  -3.4513  -3.4193
    -3.4178  -3.4007  -3.3726  -3.3718  -3.3354  -3.3338  -3.3081  -3.2920
    -3.2907  -3.2883  -3.2762  -3.2727  -3.2711  -3.2466  -3.2342  -3.2216
    -3.1823  -3.1814  -3.1737  -3.1645  -3.1638  -3.1620  -3.1383  -3.1380
    -3.1180  -3.1166  -3.1151  -3.0892  -3.0889  -3.0817  -3.0794  -3.0773
    -3.0426  -3.0394  -3.0036  -3.0022  -3.0015  -2.9998  -2.9986  -2.9197
    -2.9099  -2.9070  -2.9051  -2.9044  -2.9032  -2.9006  -2.8983  -2.8982
    -2.8979  -2.8886  -2.8808  -2.8642  -2.8613  -2.8599  -2.8599  -2.8457
    -2.8414  -2.8033  -2.8028  -2.8019  -2.7980  -2.7967  -2.7800  -2.7787
    -2.7710  -2.7702  -2.7681  -2.7091  -2.7090  -2.7033  -2.7031  -2.6987
    -2.6975  -2.6699  -2.6111  -2.6101  -2.6096  -2.6071  -2.5960  -2.5943
    -2.5891  -2.5794  -2.5777  -2.5430  -2.5398  -2.5339  -2.5328  -2.5305
    -2.5302  -2.4923  -2.4911  -2.4819  -2.4813  -2.4806  -2.4790  -2.4372
    -2.4214  -2.4161  -2.3638  -2.3621  -2.3449  -2.3430  -2.3376  -2.3365
    -2.2902  -2.2871  -2.2651  -2.2502  -2.2355  -2.2343  -2.2327  -2.2122
    -2.2110  -2.2019  -2.1851  -2.1492  -2.1438  -2.1320  -2.1286  -2.1285
    -2.1202  -2.1179  -2.1074  -2.1029  -2.1025  -2.0982  -2.0944  -2.0926
    -2.0913  -2.0823  -2.0798  -2.0635  -2.0623  -2.0607  -2.0549  -2.0521
    -2.0504  -2.0289  -2.0264  -2.0162  -2.0145  -2.0095  -2.0082  -1.9708
    -1.9381  -1.9360  -1.9016  -1.8852  -1.8838  -1.8761  -1.8718  -1.8499
    -1.8492  -1.8375  -1.8339  -1.8335  -1.8326  -1.8323  -1.8283  -1.7977
    -1.7969  -1.7964  -1.7517  -1.7504  -1.7132  -1.7095  -1.6640  -1.6634
    -1.6509  -1.6286  -1.6240  -1.6209  -1.6056  -1.6037  -1.5878  -1.5840
    -1.5826  -1.5792  -1.5791  -1.5778  -1.5772  -1.5767  -1.5561  -1.5544
    -1.5439  -1.5276  -1.5091  -1.5084  -1.4837  -1.4810  -1.4798  -1.4776
    -1.4747  -1.4717  -1.4530  -1.4502  -1.4354  -1.4349  -1.4227  -1.4130
    -1.4004  -1.3973  -1.3688  -1.3671  -1.3613  -1.3589  -1.3262  -1.3243
    -1.3161  -1.3144  -1.3072  -1.3067  -1.2863  -1.2840  -1.2736  -1.2678
    -1.2651  -1.2559  -1.2526  -1.2518  -1.2510  -1.2380  -1.2297  -1.2275
    -1.2215  -1.2194  -1.2140  -1.2066  -1.2036  -1.1955  -1.1775  -1.1547
    -1.1538  -1.1495  -1.1467  -1.1460  -1.1412  -1.1071  -1.0913  -1.0889
    -1.0888  -1.0876  -1.0839  -1.0798  -1.0757  -1.0668  -1.0638  -1.0287
    -1.0266  -1.0203  -1.0202  -0.9982  -0.9971  -0.9876  -0.9581  -0.9501
    -0.9243  -0.9217  -0.8952  -0.8949  -0.8916  -0.8912  -0.8894  -0.8854
    -0.8815  -0.8805  -0.8773  -0.8750  -0.8446  -0.8430  -0.8255  -0.8236
    -0.8213  -0.8190  -0.8181  -0.8154  -0.7995  -0.5250  -0.5130  -0.4568
    -0.4532  -0.4183  -0.2583  -0.1938  -0.1911  -0.1589   0.1261   0.1284
     0.4560   0.4605   0.5543   0.5566   0.5943   0.5990   0.7390   0.7450
     0.8645   0.8670   0.9577   1.5518   1.5696   1.5712   1.6103   1.6155
     1.6593   1.6675   1.7380   1.7433   1.9447   1.9490   2.1853   2.2593
     2.2663   2.2786   2.6584   2.6658   2.7317   2.7336   2.7393   2.7419
     2.8900   2.8931   2.9490   3.0311   3.0419   3.2652   3.2680   3.4013
     3.4265   3.4320   3.6971   3.7049   3.8162   3.8319   3.8337   3.9074
     3.9260   4.0146   4.0221   4.2526   4.2579   4.3455   4.3507   4.4702
     4.4706   4.4943   4.5003   4.6624   5.1412   5.3119   5.3272   5.3967
     5.4046   5.5234   5.5756   5.5845   5.6496   5.6962   5.6996   5.7118
     5.7393   5.7399   5.7524   5.7930   6.0022   6.0580   6.0745   6.0799
     6.0868   6.0940   6.0960   6.1025   6.1043   6.1476   6.1835   6.1897

          k = 0.2500 0.2500-0.2500 (167588 PWs)   bands (ev):

   -19.1671  -7.0561  -6.8702  -6.3443  -6.3436  -5.9149  -5.5056  -5.4135
    -5.4118  -5.2169  -5.2163  -5.0999  -5.0976  -5.0203  -4.9973  -4.9243
    -4.8394  -4.8357  -4.7972  -4.7963  -4.6361  -4.6194  -4.6186  -4.6172
    -4.6107  -4.5552  -4.5551  -4.5440  -4.5424  -4.5063  -4.4948  -4.4924
    -4.4517  -4.4512  -4.4181  -4.4166  -4.3667  -4.3636  -4.3542  -4.3529
    -4.3472  -4.3342  -4.3340  -4.2932  -4.2753  -4.2744  -4.2679  -4.2673
    -4.2355  -4.1863  -4.1712  -4.1699  -4.1697  -4.1656  -4.1587  -4.1534
    -4.1530  -4.1522  -4.0905  -4.0863  -4.0393  -4.0366  -4.0253  -4.0006
    -3.9987  -3.9809  -3.9765  -3.9758  -3.9717  -3.9691  -3.9201  -3.9197
    -3.9076  -3.9061  -3.8030  -3.8005  -3.7976  -3.7942  -3.7578  -3.7509
    -3.7342  -3.7049  -3.7046  -3.6766  -3.6749  -3.6561  -3.6537  -3.6416
    -3.6393  -3.5862  -3.5849  -3.5679  -3.5511  -3.5404  -3.5396  -3.5381
    -3.5378  -3.5119  -3.5097  -3.4738  -3.4736  -3.4527  -3.4513  -3.4193
    -3.4178  -3.4007  -3.3726  -3.3718  -3.3354  -3.3338  -3.3081  -3.2920
    -3.2907  -3.2883  -3.2762  -3.2727  -3.2711  -3.2466  -3.2342  -3.2216
    -3.1823  -3.1814  -3.1737  -3.1644  -3.1638  -3.1620  -3.1383  -3.1380
    -3.1180  -3.1166  -3.1151  -3.0892  -3.0889  -3.0817  -3.0794  -3.0773
    -3.0426  -3.0393  -3.0036  -3.0022  -3.0015  -2.9998  -2.9986  -2.9197
    -2.9099  -2.9070  -2.9051  -2.9044  -2.9032  -2.9006  -2.8983  -2.8982
    -2.8978  -2.8886  -2.8808  -2.8642  -2.8613  -2.8599  -2.8599  -2.8457
    -2.8414  -2.8033  -2.8028  -2.8019  -2.7980  -2.7967  -2.7800  -2.7787
    -2.7710  -2.7702  -2.7681  -2.7091  -2.7090  -2.7033  -2.7031  -2.6987
    -2.6975  -2.6699  -2.6111  -2.6101  -2.6096  -2.6071  -2.5960  -2.5943
    -2.5891  -2.5793  -2.5776  -2.5430  -2.5398  -2.5339  -2.5328  -2.5304
    -2.5302  -2.4923  -2.4911  -2.4819  -2.4813  -2.4806  -2.4790  -2.4372
    -2.4214  -2.4161  -2.3638  -2.3621  -2.3450  -2.3430  -2.3376  -2.3365
    -2.2902  -2.2871  -2.2651  -2.2502  -2.2355  -2.2343  -2.2327  -2.2122
    -2.2110  -2.2019  -2.1851  -2.1492  -2.1438  -2.1320  -2.1286  -2.1285
    -2.1202  -2.1179  -2.1074  -2.1029  -2.1025  -2.0982  -2.0944  -2.0926
    -2.0913  -2.0823  -2.0798  -2.0635  -2.0623  -2.0607  -2.0549  -2.0521
    -2.0504  -2.0289  -2.0264  -2.0162  -2.0145  -2.0095  -2.0082  -1.9708
    -1.9381  -1.9360  -1.9016  -1.8852  -1.8838  -1.8761  -1.8718  -1.8499
    -1.8492  -1.8375  -1.8339  -1.8335  -1.8326  -1.8323  -1.8283  -1.7977
    -1.7969  -1.7964  -1.7517  -1.7504  -1.7132  -1.7095  -1.6640  -1.6634
    -1.6509  -1.6286  -1.6240  -1.6209  -1.6056  -1.6037  -1.5878  -1.5840
    -1.5825  -1.5792  -1.5791  -1.5778  -1.5772  -1.5767  -1.5561  -1.5544
    -1.5439  -1.5276  -1.5091  -1.5084  -1.4837  -1.4810  -1.4798  -1.4776
    -1.4747  -1.4717  -1.4530  -1.4502  -1.4354  -1.4349  -1.4227  -1.4131
    -1.4004  -1.3973  -1.3688  -1.3671  -1.3613  -1.3589  -1.3262  -1.3243
    -1.3161  -1.3144  -1.3072  -1.3067  -1.2863  -1.2840  -1.2736  -1.2678
    -1.2651  -1.2559  -1.2526  -1.2518  -1.2510  -1.2380  -1.2297  -1.2275
    -1.2215  -1.2194  -1.2140  -1.2066  -1.2036  -1.1955  -1.1775  -1.1547
    -1.1538  -1.1495  -1.1467  -1.1460  -1.1412  -1.1071  -1.0913  -1.0889
    -1.0888  -1.0876  -1.0839  -1.0798  -1.0757  -1.0668  -1.0638  -1.0287
    -1.0266  -1.0203  -1.0202  -0.9982  -0.9971  -0.9876  -0.9581  -0.9501
    -0.9243  -0.9217  -0.8952  -0.8949  -0.8916  -0.8912  -0.8894  -0.8854
    -0.8815  -0.8805  -0.8773  -0.8750  -0.8446  -0.8430  -0.8255  -0.8236
    -0.8213  -0.8190  -0.8181  -0.8154  -0.7995  -0.5250  -0.5130  -0.4568
    -0.4532  -0.4183  -0.2583  -0.1938  -0.1911  -0.1589   0.1261   0.1284
     0.4560   0.4605   0.5543   0.5566   0.5943   0.5990   0.7390   0.7450
     0.8645   0.8670   0.9577   1.5518   1.5696   1.5712   1.6103   1.6155
     1.6593   1.6676   1.7380   1.7433   1.9447   1.9490   2.1853   2.2593
     2.2663   2.2786   2.6584   2.6658   2.7317   2.7336   2.7393   2.7419
     2.8900   2.8931   2.9490   3.0311   3.0419   3.2652   3.2680   3.4013
     3.4265   3.4320   3.6971   3.7049   3.8162   3.8319   3.8337   3.9074
     3.9261   4.0146   4.0221   4.2526   4.2579   4.3455   4.3507   4.4702
     4.4706   4.4943   4.5003   4.6625   5.1327   5.3121   5.3216   5.3959
     5.4046   5.5264   5.5761   5.5845   5.6563   5.6983   5.6987   5.7202
     5.7387   5.7522   5.7630   5.7933   6.0236   6.0633   6.0752   6.0807
     6.0878   6.0959   6.1019   6.1025   6.1045   6.1323   6.1815   6.2180

          k =-0.2500-0.2500 0.0833 (167653 PWs)   bands (ev):

   -19.1671  -7.0561  -6.8702  -6.3443  -6.3436  -5.9149  -5.5056  -5.4135
    -5.4118  -5.2169  -5.2164  -5.0999  -5.0976  -5.0203  -4.9973  -4.9243
    -4.8394  -4.8357  -4.7972  -4.7963  -4.6361  -4.6194  -4.6186  -4.6172
    -4.6107  -4.5552  -4.5551  -4.5440  -4.5424  -4.5063  -4.4948  -4.4924
    -4.4517  -4.4512  -4.4181  -4.4166  -4.3667  -4.3636  -4.3542  -4.3529
    -4.3472  -4.3342  -4.3340  -4.2932  -4.2753  -4.2744  -4.2679  -4.2673
    -4.2355  -4.1863  -4.1712  -4.1699  -4.1697  -4.1656  -4.1587  -4.1534
    -4.1530  -4.1522  -4.0905  -4.0863  -4.0393  -4.0366  -4.0253  -4.0006
    -3.9987  -3.9809  -3.9765  -3.9758  -3.9717  -3.9691  -3.9201  -3.9197
    -3.9076  -3.9061  -3.8030  -3.8005  -3.7976  -3.7942  -3.7578  -3.7509
    -3.7342  -3.7049  -3.7046  -3.6766  -3.6749  -3.6561  -3.6537  -3.6416
    -3.6393  -3.5862  -3.5849  -3.5679  -3.5511  -3.5404  -3.5396  -3.5381
    -3.5378  -3.5119  -3.5097  -3.4738  -3.4736  -3.4527  -3.4513  -3.4193
    -3.4178  -3.4007  -3.3726  -3.3718  -3.3354  -3.3338  -3.3081  -3.2920
    -3.2907  -3.2883  -3.2762  -3.2727  -3.2711  -3.2466  -3.2342  -3.2216
    -3.1823  -3.1814  -3.1737  -3.1645  -3.1638  -3.1620  -3.1383  -3.1380
    -3.1180  -3.1166  -3.1151  -3.0892  -3.0889  -3.0817  -3.0794  -3.0773
    -3.0426  -3.0394  -3.0036  -3.0022  -3.0015  -2.9998  -2.9986  -2.9197
    -2.9099  -2.9070  -2.9051  -2.9044  -2.9032  -2.9006  -2.8983  -2.8982
    -2.8979  -2.8886  -2.8808  -2.8642  -2.8613  -2.8599  -2.8599  -2.8457
    -2.8414  -2.8033  -2.8028  -2.8019  -2.7980  -2.7967  -2.7800  -2.7787
    -2.7710  -2.7702  -2.7681  -2.7091  -2.7090  -2.7033  -2.7031  -2.6987
    -2.6975  -2.6699  -2.6111  -2.6101  -2.6096  -2.6071  -2.5960  -2.5943
    -2.5891  -2.5794  -2.5777  -2.5430  -2.5398  -2.5339  -2.5328  -2.5305
    -2.5302  -2.4923  -2.4911  -2.4819  -2.4813  -2.4806  -2.4790  -2.4372
    -2.4214  -2.4161  -2.3638  -2.3621  -2.3449  -2.3430  -2.3376  -2.3365
    -2.2902  -2.2871  -2.2651  -2.2502  -2.2355  -2.2343  -2.2327  -2.2122
    -2.2110  -2.2019  -2.1851  -2.1492  -2.1438  -2.1320  -2.1286  -2.1285
    -2.1202  -2.1179  -2.1074  -2.1029  -2.1025  -2.0982  -2.0944  -2.0926
    -2.0913  -2.0823  -2.0798  -2.0635  -2.0623  -2.0607  -2.0549  -2.0521
    -2.0504  -2.0289  -2.0264  -2.0162  -2.0145  -2.0095  -2.0082  -1.9708
    -1.9381  -1.9360  -1.9016  -1.8852  -1.8838  -1.8761  -1.8718  -1.8499
    -1.8492  -1.8375  -1.8339  -1.8335  -1.8326  -1.8323  -1.8283  -1.7977
    -1.7969  -1.7964  -1.7517  -1.7504  -1.7132  -1.7095  -1.6640  -1.6634
    -1.6509  -1.6286  -1.6240  -1.6209  -1.6056  -1.6037  -1.5878  -1.5840
    -1.5826  -1.5792  -1.5791  -1.5778  -1.5772  -1.5767  -1.5561  -1.5544
    -1.5439  -1.5276  -1.5091  -1.5084  -1.4837  -1.4810  -1.4798  -1.4776
    -1.4747  -1.4717  -1.4530  -1.4502  -1.4354  -1.4349  -1.4227  -1.4130
    -1.4004  -1.3973  -1.3688  -1.3671  -1.3613  -1.3589  -1.3262  -1.3243
    -1.3161  -1.3144  -1.3072  -1.3067  -1.2863  -1.2840  -1.2736  -1.2678
    -1.2651  -1.2559  -1.2526  -1.2518  -1.2510  -1.2380  -1.2297  -1.2275
    -1.2215  -1.2194  -1.2140  -1.2066  -1.2036  -1.1955  -1.1775  -1.1547
    -1.1538  -1.1495  -1.1467  -1.1460  -1.1412  -1.1071  -1.0913  -1.0889
    -1.0888  -1.0876  -1.0839  -1.0798  -1.0757  -1.0668  -1.0638  -1.0287
    -1.0266  -1.0203  -1.0202  -0.9982  -0.9971  -0.9876  -0.9581  -0.9501
    -0.9243  -0.9217  -0.8952  -0.8949  -0.8916  -0.8912  -0.8894  -0.8854
    -0.8815  -0.8805  -0.8773  -0.8750  -0.8446  -0.8430  -0.8255  -0.8236
    -0.8213  -0.8190  -0.8181  -0.8154  -0.7995  -0.5250  -0.5130  -0.4568
    -0.4532  -0.4183  -0.2583  -0.1938  -0.1911  -0.1589   0.1261   0.1284
     0.4560   0.4605   0.5543   0.5566   0.5943   0.5990   0.7390   0.7450
     0.8645   0.8670   0.9577   1.5518   1.5696   1.5712   1.6103   1.6155
     1.6593   1.6675   1.7380   1.7433   1.9447   1.9490   2.1853   2.2593
     2.2663   2.2786   2.6584   2.6658   2.7317   2.7336   2.7393   2.7419
     2.8900   2.8931   2.9490   3.0311   3.0419   3.2652   3.2680   3.4013
     3.4265   3.4320   3.6971   3.7049   3.8162   3.8319   3.8337   3.9074
     3.9260   4.0146   4.0221   4.2526   4.2579   4.3455   4.3507   4.4702
     4.4706   4.4943   4.5003   4.6624   5.1408   5.3119   5.3284   5.3966
     5.4046   5.5198   5.5754   5.5845   5.6507   5.6967   5.6996   5.7164
     5.7393   5.7400   5.7524   5.7929   6.0033   6.0581   6.0748   6.0792
     6.0873   6.0922   6.0960   6.1025   6.1044   6.1479   6.1753   6.1882

          k =-0.2500 0.2500-0.0833 (167653 PWs)   bands (ev):

   -19.1671  -7.0562  -6.8701  -6.3449  -6.3432  -5.9147  -5.5056  -5.4133
    -5.4119  -5.2168  -5.2166  -5.1000  -5.0975  -5.0202  -4.9973  -4.9244
    -4.8396  -4.8356  -4.7971  -4.7963  -4.6362  -4.6193  -4.6183  -4.6173
    -4.6107  -4.5554  -4.5551  -4.5438  -4.5427  -4.5062  -4.4947  -4.4926
    -4.4516  -4.4512  -4.4179  -4.4168  -4.3657  -4.3639  -4.3546  -4.3528
    -4.3473  -4.3342  -4.3340  -4.2939  -4.2753  -4.2746  -4.2678  -4.2673
    -4.2361  -4.1869  -4.1710  -4.1700  -4.1682  -4.1658  -4.1587  -4.1532
    -4.1529  -4.1524  -4.0889  -4.0865  -4.0393  -4.0371  -4.0255  -3.9996
    -3.9989  -3.9802  -3.9764  -3.9757  -3.9722  -3.9691  -3.9202  -3.9198
    -3.9076  -3.9064  -3.8034  -3.8009  -3.7965  -3.7945  -3.7578  -3.7509
    -3.7342  -3.7055  -3.7047  -3.6766  -3.6751  -3.6552  -3.6538  -3.6422
    -3.6399  -3.5858  -3.5850  -3.5709  -3.5511  -3.5416  -3.5388  -3.5381
    -3.5370  -3.5106  -3.5096  -3.4750  -3.4733  -3.4528  -3.4504  -3.4199
    -3.4172  -3.4005  -3.3748  -3.3719  -3.3362  -3.3343  -3.3004  -3.2936
    -3.2909  -3.2812  -3.2762  -3.2734  -3.2711  -3.2573  -3.2336  -3.2220
    -3.1823  -3.1806  -3.1740  -3.1641  -3.1633  -3.1622  -3.1384  -3.1383
    -3.1176  -3.1167  -3.1154  -3.0893  -3.0885  -3.0817  -3.0788  -3.0775
    -3.0423  -3.0389  -3.0034  -3.0026  -3.0024  -2.9996  -2.9988  -2.9197
    -2.9100  -2.9066  -2.9049  -2.9046  -2.9034  -2.8993  -2.8986  -2.8983
    -2.8978  -2.8886  -2.8808  -2.8647  -2.8613  -2.8597  -2.8591  -2.8456
    -2.8406  -2.8035  -2.8024  -2.8021  -2.7983  -2.7970  -2.7799  -2.7789
    -2.7707  -2.7706  -2.7680  -2.7094  -2.7087  -2.7033  -2.7031  -2.6983
    -2.6969  -2.6703  -2.6110  -2.6102  -2.6093  -2.6071  -2.5961  -2.5939
    -2.5889  -2.5789  -2.5776  -2.5440  -2.5403  -2.5337  -2.5323  -2.5312
    -2.5305  -2.4931  -2.4915  -2.4819  -2.4816  -2.4803  -2.4793  -2.4373
    -2.4214  -2.4172  -2.3633  -2.3623  -2.3447  -2.3430  -2.3374  -2.3371
    -2.2900  -2.2874  -2.2652  -2.2498  -2.2361  -2.2343  -2.2327  -2.2117
    -2.2109  -2.2019  -2.1849  -2.1464  -2.1441  -2.1314  -2.1297  -2.1285
    -2.1197  -2.1182  -2.1060  -2.1027  -2.1015  -2.0986  -2.0945  -2.0928
    -2.0918  -2.0819  -2.0807  -2.0629  -2.0624  -2.0604  -2.0546  -2.0519
    -2.0507  -2.0286  -2.0274  -2.0159  -2.0145  -2.0094  -2.0080  -1.9708
    -1.9380  -1.9364  -1.9016  -1.8848  -1.8841  -1.8756  -1.8721  -1.8514
    -1.8491  -1.8372  -1.8341  -1.8326  -1.8324  -1.8315  -1.8287  -1.7978
    -1.7969  -1.7965  -1.7519  -1.7507  -1.7121  -1.7105  -1.6645  -1.6634
    -1.6511  -1.6289  -1.6241  -1.6209  -1.6051  -1.6034  -1.5866  -1.5853
    -1.5822  -1.5802  -1.5791  -1.5780  -1.5769  -1.5755  -1.5558  -1.5547
    -1.5436  -1.5276  -1.5100  -1.5089  -1.4835  -1.4826  -1.4791  -1.4781
    -1.4774  -1.4716  -1.4508  -1.4503  -1.4375  -1.4344  -1.4226  -1.4130
    -1.3995  -1.3980  -1.3694  -1.3675  -1.3601  -1.3595  -1.3249  -1.3233
    -1.3160  -1.3147  -1.3077  -1.3065  -1.2856  -1.2844  -1.2738  -1.2670
    -1.2660  -1.2588  -1.2539  -1.2520  -1.2513  -1.2383  -1.2279  -1.2268
    -1.2195  -1.2189  -1.2144  -1.2025  -1.2018  -1.1960  -1.1729  -1.1562
    -1.1539  -1.1488  -1.1467  -1.1459  -1.1456  -1.1075  -1.0900  -1.0892
    -1.0888  -1.0876  -1.0836  -1.0821  -1.0796  -1.0664  -1.0641  -1.0286
    -1.0270  -1.0206  -1.0198  -0.9980  -0.9972  -0.9877  -0.9588  -0.9503
    -0.9241  -0.9220  -0.8951  -0.8945  -0.8917  -0.8913  -0.8894  -0.8853
    -0.8809  -0.8806  -0.8768  -0.8752  -0.8441  -0.8434  -0.8255  -0.8229
    -0.8211  -0.8191  -0.8178  -0.8174  -0.7997  -0.5248  -0.5130  -0.4577
    -0.4530  -0.4181  -0.2564  -0.1927  -0.1914  -0.1583   0.1262   0.1277
     0.4556   0.4611   0.5553   0.5562   0.5962   0.5990   0.7397   0.7436
     0.8643   0.8666   0.9578   1.5520   1.5697   1.5703   1.6067   1.6154
     1.6574   1.6704   1.7389   1.7424   1.9460   1.9481   2.1842   2.2591
     2.2663   2.2790   2.6556   2.6674   2.7317   2.7336   2.7397   2.7417
     2.8913   2.8920   2.9480   3.0350   3.0434   3.2669   3.2717   3.4009
     3.4271   3.4305   3.6985   3.7053   3.8090   3.8324   3.8333   3.9027
     3.9338   4.0176   4.0218   4.2554   4.2565   4.3444   4.3501   4.4636
     4.4733   4.4871   4.5008   4.6575   5.1388   5.3183   5.3212   5.4022
     5.4087   5.5179   5.5792   5.5851   5.6483   5.6925   5.6982   5.7069
     5.7490   5.7511   5.7553   5.7977   6.0152   6.0515   6.0687   6.0844
     6.0901   6.0926   6.0973   6.0995   6.1024   6.1555   6.1622   6.2019

          k = 0.2500-0.2500-0.0833 (167653 PWs)   bands (ev):

   -19.1671  -7.0562  -6.8701  -6.3449  -6.3432  -5.9147  -5.5056  -5.4133
    -5.4119  -5.2168  -5.2166  -5.1000  -5.0975  -5.0202  -4.9973  -4.9244
    -4.8396  -4.8356  -4.7971  -4.7963  -4.6362  -4.6193  -4.6183  -4.6173
    -4.6107  -4.5554  -4.5551  -4.5438  -4.5427  -4.5062  -4.4947  -4.4926
    -4.4516  -4.4512  -4.4179  -4.4168  -4.3657  -4.3639  -4.3546  -4.3528
    -4.3473  -4.3342  -4.3340  -4.2939  -4.2753  -4.2746  -4.2678  -4.2673
    -4.2361  -4.1869  -4.1710  -4.1700  -4.1682  -4.1658  -4.1587  -4.1532
    -4.1529  -4.1524  -4.0889  -4.0865  -4.0393  -4.0371  -4.0255  -3.9996
    -3.9989  -3.9802  -3.9764  -3.9757  -3.9722  -3.9691  -3.9202  -3.9198
    -3.9076  -3.9064  -3.8034  -3.8009  -3.7965  -3.7945  -3.7578  -3.7509
    -3.7342  -3.7055  -3.7047  -3.6766  -3.6751  -3.6552  -3.6538  -3.6422
    -3.6399  -3.5858  -3.5850  -3.5709  -3.5511  -3.5416  -3.5388  -3.5381
    -3.5370  -3.5106  -3.5096  -3.4750  -3.4733  -3.4528  -3.4504  -3.4199
    -3.4172  -3.4005  -3.3748  -3.3719  -3.3362  -3.3343  -3.3004  -3.2936
    -3.2909  -3.2812  -3.2762  -3.2734  -3.2711  -3.2573  -3.2336  -3.2220
    -3.1823  -3.1806  -3.1740  -3.1641  -3.1633  -3.1622  -3.1384  -3.1383
    -3.1176  -3.1167  -3.1154  -3.0893  -3.0885  -3.0817  -3.0788  -3.0775
    -3.0423  -3.0389  -3.0034  -3.0026  -3.0024  -2.9996  -2.9988  -2.9197
    -2.9100  -2.9066  -2.9049  -2.9046  -2.9034  -2.8993  -2.8986  -2.8983
    -2.8978  -2.8886  -2.8808  -2.8647  -2.8613  -2.8597  -2.8591  -2.8456
    -2.8406  -2.8035  -2.8024  -2.8021  -2.7983  -2.7970  -2.7799  -2.7789
    -2.7707  -2.7706  -2.7680  -2.7094  -2.7087  -2.7033  -2.7031  -2.6983
    -2.6969  -2.6703  -2.6110  -2.6102  -2.6093  -2.6071  -2.5961  -2.5939
    -2.5889  -2.5789  -2.5776  -2.5440  -2.5403  -2.5337  -2.5323  -2.5312
    -2.5305  -2.4931  -2.4915  -2.4819  -2.4816  -2.4803  -2.4793  -2.4373
    -2.4214  -2.4172  -2.3633  -2.3623  -2.3447  -2.3430  -2.3374  -2.3371
    -2.2900  -2.2874  -2.2652  -2.2498  -2.2361  -2.2343  -2.2327  -2.2117
    -2.2109  -2.2019  -2.1849  -2.1464  -2.1441  -2.1314  -2.1297  -2.1285
    -2.1197  -2.1182  -2.1060  -2.1027  -2.1015  -2.0986  -2.0945  -2.0928
    -2.0918  -2.0819  -2.0807  -2.0629  -2.0624  -2.0604  -2.0546  -2.0519
    -2.0507  -2.0286  -2.0274  -2.0159  -2.0145  -2.0094  -2.0080  -1.9708
    -1.9380  -1.9364  -1.9016  -1.8848  -1.8841  -1.8756  -1.8721  -1.8514
    -1.8491  -1.8372  -1.8341  -1.8326  -1.8324  -1.8315  -1.8287  -1.7978
    -1.7969  -1.7965  -1.7519  -1.7507  -1.7121  -1.7105  -1.6645  -1.6634
    -1.6511  -1.6289  -1.6241  -1.6209  -1.6051  -1.6034  -1.5866  -1.5853
    -1.5822  -1.5802  -1.5791  -1.5780  -1.5769  -1.5755  -1.5558  -1.5547
    -1.5436  -1.5276  -1.5100  -1.5089  -1.4835  -1.4826  -1.4791  -1.4781
    -1.4774  -1.4716  -1.4508  -1.4503  -1.4375  -1.4344  -1.4226  -1.4130
    -1.3995  -1.3980  -1.3694  -1.3675  -1.3601  -1.3595  -1.3249  -1.3233
    -1.3160  -1.3147  -1.3077  -1.3065  -1.2856  -1.2844  -1.2738  -1.2670
    -1.2660  -1.2588  -1.2539  -1.2520  -1.2513  -1.2383  -1.2279  -1.2268
    -1.2195  -1.2189  -1.2144  -1.2025  -1.2018  -1.1960  -1.1729  -1.1562
    -1.1539  -1.1488  -1.1467  -1.1459  -1.1456  -1.1075  -1.0900  -1.0892
    -1.0888  -1.0876  -1.0836  -1.0821  -1.0796  -1.0664  -1.0641  -1.0286
    -1.0270  -1.0206  -1.0198  -0.9980  -0.9972  -0.9877  -0.9588  -0.9503
    -0.9241  -0.9220  -0.8951  -0.8945  -0.8917  -0.8913  -0.8894  -0.8853
    -0.8809  -0.8806  -0.8768  -0.8752  -0.8441  -0.8434  -0.8255  -0.8229
    -0.8211  -0.8191  -0.8178  -0.8174  -0.7997  -0.5248  -0.5130  -0.4577
    -0.4530  -0.4181  -0.2564  -0.1927  -0.1914  -0.1583   0.1262   0.1277
     0.4556   0.4611   0.5553   0.5562   0.5962   0.5990   0.7397   0.7436
     0.8643   0.8666   0.9578   1.5520   1.5697   1.5703   1.6067   1.6154
     1.6574   1.6704   1.7389   1.7424   1.9460   1.9481   2.1842   2.2591
     2.2663   2.2790   2.6556   2.6674   2.7317   2.7336   2.7397   2.7417
     2.8913   2.8920   2.9480   3.0350   3.0434   3.2669   3.2717   3.4009
     3.4271   3.4305   3.6985   3.7053   3.8090   3.8324   3.8333   3.9027
     3.9338   4.0176   4.0218   4.2554   4.2565   4.3444   4.3501   4.4636
     4.4733   4.4871   4.5008   4.6575   5.1388   5.3182   5.3214   5.4022
     5.4087   5.5176   5.5792   5.5851   5.6484   5.6926   5.6983   5.7069
     5.7490   5.7511   5.7554   5.7977   6.0154   6.0515   6.0686   6.0843
     6.0903   6.0926   6.0972   6.0995   6.1024   6.1558   6.1614   6.2015

          k =-0.2500 0.2500 0.2500 (167588 PWs)   bands (ev):

   -19.1671  -7.0562  -6.8701  -6.3449  -6.3432  -5.9147  -5.5056  -5.4133
    -5.4119  -5.2168  -5.2166  -5.1000  -5.0975  -5.0202  -4.9973  -4.9244
    -4.8396  -4.8356  -4.7971  -4.7963  -4.6362  -4.6193  -4.6183  -4.6173
    -4.6108  -4.5554  -4.5551  -4.5438  -4.5427  -4.5062  -4.4947  -4.4926
    -4.4516  -4.4512  -4.4179  -4.4168  -4.3657  -4.3639  -4.3546  -4.3528
    -4.3473  -4.3342  -4.3340  -4.2939  -4.2753  -4.2746  -4.2678  -4.2673
    -4.2361  -4.1869  -4.1710  -4.1700  -4.1682  -4.1658  -4.1587  -4.1532
    -4.1529  -4.1524  -4.0889  -4.0865  -4.0393  -4.0371  -4.0255  -3.9996
    -3.9989  -3.9802  -3.9764  -3.9757  -3.9722  -3.9691  -3.9202  -3.9198
    -3.9076  -3.9064  -3.8034  -3.8009  -3.7965  -3.7945  -3.7578  -3.7509
    -3.7342  -3.7055  -3.7047  -3.6766  -3.6751  -3.6552  -3.6538  -3.6422
    -3.6399  -3.5858  -3.5850  -3.5709  -3.5511  -3.5416  -3.5388  -3.5381
    -3.5370  -3.5106  -3.5096  -3.4749  -3.4733  -3.4528  -3.4504  -3.4199
    -3.4172  -3.4005  -3.3748  -3.3719  -3.3362  -3.3343  -3.3004  -3.2936
    -3.2909  -3.2812  -3.2762  -3.2734  -3.2711  -3.2573  -3.2336  -3.2220
    -3.1823  -3.1806  -3.1740  -3.1641  -3.1633  -3.1622  -3.1384  -3.1383
    -3.1176  -3.1167  -3.1154  -3.0893  -3.0885  -3.0817  -3.0788  -3.0775
    -3.0423  -3.0389  -3.0034  -3.0026  -3.0024  -2.9996  -2.9988  -2.9197
    -2.9100  -2.9066  -2.9049  -2.9046  -2.9034  -2.8993  -2.8986  -2.8983
    -2.8978  -2.8886  -2.8808  -2.8647  -2.8613  -2.8597  -2.8591  -2.8456
    -2.8406  -2.8035  -2.8024  -2.8021  -2.7983  -2.7970  -2.7799  -2.7789
    -2.7707  -2.7706  -2.7680  -2.7094  -2.7087  -2.7033  -2.7031  -2.6983
    -2.6969  -2.6703  -2.6110  -2.6102  -2.6093  -2.6071  -2.5961  -2.5939
    -2.5889  -2.5789  -2.5776  -2.5440  -2.5403  -2.5337  -2.5323  -2.5312
    -2.5305  -2.4931  -2.4915  -2.4819  -2.4816  -2.4803  -2.4793  -2.4373
    -2.4214  -2.4172  -2.3633  -2.3623  -2.3447  -2.3431  -2.3374  -2.3371
    -2.2900  -2.2874  -2.2653  -2.2498  -2.2361  -2.2343  -2.2327  -2.2117
    -2.2109  -2.2019  -2.1849  -2.1464  -2.1440  -2.1314  -2.1297  -2.1285
    -2.1197  -2.1182  -2.1060  -2.1027  -2.1015  -2.0986  -2.0945  -2.0928
    -2.0918  -2.0819  -2.0807  -2.0629  -2.0624  -2.0604  -2.0546  -2.0519
    -2.0507  -2.0286  -2.0274  -2.0159  -2.0145  -2.0094  -2.0080  -1.9708
    -1.9380  -1.9364  -1.9016  -1.8848  -1.8841  -1.8756  -1.8721  -1.8514
    -1.8491  -1.8372  -1.8341  -1.8326  -1.8324  -1.8315  -1.8286  -1.7978
    -1.7969  -1.7965  -1.7519  -1.7507  -1.7121  -1.7105  -1.6645  -1.6634
    -1.6511  -1.6289  -1.6241  -1.6209  -1.6051  -1.6034  -1.5866  -1.5853
    -1.5822  -1.5802  -1.5791  -1.5780  -1.5769  -1.5755  -1.5558  -1.5547
    -1.5436  -1.5276  -1.5100  -1.5089  -1.4835  -1.4826  -1.4791  -1.4781
    -1.4774  -1.4716  -1.4508  -1.4503  -1.4375  -1.4344  -1.4226  -1.4130
    -1.3995  -1.3980  -1.3694  -1.3675  -1.3601  -1.3595  -1.3249  -1.3233
    -1.3160  -1.3147  -1.3077  -1.3065  -1.2855  -1.2844  -1.2738  -1.2670
    -1.2660  -1.2587  -1.2539  -1.2520  -1.2513  -1.2383  -1.2279  -1.2268
    -1.2194  -1.2189  -1.2144  -1.2025  -1.2018  -1.1960  -1.1729  -1.1562
    -1.1539  -1.1488  -1.1467  -1.1459  -1.1456  -1.1075  -1.0900  -1.0892
    -1.0888  -1.0875  -1.0836  -1.0821  -1.0796  -1.0664  -1.0641  -1.0286
    -1.0270  -1.0206  -1.0198  -0.9980  -0.9971  -0.9877  -0.9588  -0.9503
    -0.9241  -0.9220  -0.8951  -0.8945  -0.8917  -0.8913  -0.8894  -0.8853
    -0.8809  -0.8806  -0.8768  -0.8752  -0.8441  -0.8434  -0.8255  -0.8229
    -0.8211  -0.8191  -0.8178  -0.8174  -0.7997  -0.5248  -0.5130  -0.4577
    -0.4530  -0.4181  -0.2564  -0.1927  -0.1914  -0.1583   0.1262   0.1277
     0.4556   0.4611   0.5553   0.5562   0.5962   0.5990   0.7397   0.7436
     0.8643   0.8666   0.9578   1.5520   1.5697   1.5703   1.6067   1.6154
     1.6574   1.6704   1.7389   1.7424   1.9460   1.9481   2.1842   2.2591
     2.2663   2.2790   2.6556   2.6674   2.7317   2.7336   2.7397   2.7417
     2.8913   2.8920   2.9480   3.0350   3.0434   3.2669   3.2717   3.4009
     3.4271   3.4305   3.6986   3.7053   3.8090   3.8324   3.8333   3.9028
     3.9338   4.0176   4.0218   4.2554   4.2565   4.3444   4.3501   4.4636
     4.4733   4.4871   4.5008   4.6576   5.1308   5.3130   5.3202   5.4018
     5.4088   5.5210   5.5792   5.5853   5.6546   5.6928   5.7000   5.7337
     5.7490   5.7510   5.7567   5.7977   6.0408   6.0557   6.0677   6.0828
     6.0901   6.0966   6.0985   6.1024   6.1131   6.1229   6.1845   6.2142

     the Fermi energy is     0.8157 ev

!    total energy              =   -7425.29288556 Ry
     Harris-Foulkes estimate   =   -7425.29288556 Ry
     estimated scf accuracy    <          3.0E-09 Ry

     The total energy is the sum of the following terms:

     one-electron contribution =  -48702.54985745 Ry
     hartree contribution      =   24900.72845226 Ry
     xc contribution           =   -3604.22328742 Ry
     ewald contribution        =   19980.75447527 Ry
     smearing contrib. (-TS)   =      -0.00266823 Ry

     convergence has been achieved in  29 iterations

     Writing output data file 4914482.save

     init_run     :    105.82s CPU    114.63s WALL (       1 calls)
     electrons    :   7002.46s CPU   7531.67s WALL (       1 calls)

     Called by init_run:
     wfcinit      :     73.24s CPU     80.73s WALL (       1 calls)
     potinit      :      7.14s CPU      7.63s WALL (       1 calls)

     Called by electrons:
     c_bands      :   5304.18s CPU   5727.55s WALL (      30 calls)
     sum_band     :   1039.76s CPU   1124.13s WALL (      30 calls)
     v_of_rho     :    135.49s CPU    148.56s WALL (      30 calls)
     newd         :    537.15s CPU    544.55s WALL (      30 calls)
     mix_rho      :      4.07s CPU      4.50s WALL (      30 calls)
     vdW_energy   :     13.10s CPU     14.61s WALL (      30 calls)
     vdW_ffts     :     66.99s CPU     73.50s WALL (      60 calls)
     vdW_v        :     17.22s CPU     18.30s WALL (      30 calls)

     Called by c_bands:
     init_us_2    :     21.02s CPU     21.39s WALL (     366 calls)
     cegterg      :   5246.47s CPU   5668.68s WALL (     180 calls)

     Called by *egterg:
     h_psi        :   2280.01s CPU   2654.62s WALL (     850 calls)
     s_psi        :    383.42s CPU    385.82s WALL (     850 calls)
     g_psi        :      4.75s CPU      4.75s WALL (     664 calls)
     cdiaghg      :   1444.71s CPU   1449.13s WALL (     838 calls)

     Called by h_psi:
     add_vuspsi   :    391.93s CPU    394.75s WALL (     850 calls)

     General routines
     calbec       :    555.02s CPU    557.42s WALL (    1030 calls)
     fft          :    157.67s CPU    169.04s WALL (    1980 calls)
     ffts         :      1.84s CPU      2.09s WALL (      60 calls)
     fftw         :   1487.93s CPU   1848.19s WALL (  480134 calls)
     interpolate  :      5.52s CPU      6.33s WALL (      60 calls)
     davcio       :      0.00s CPU      0.16s WALL (       6 calls)

     Parallel routines
     fft_scatter  :   1031.27s CPU   1273.74s WALL (  482174 calls)

     PWSCF        :     1h58m CPU        2h 7m WALL


   This run was terminated on:   1:18: 8  24Aug2015            

=------------------------------------------------------------------------------=
   JOB DONE.
=------------------------------------------------------------------------------=
