
     Program PWSCF v.5.1.2 starts on 24Aug2015 at  8:52:25 

     This program is part of the open-source Quantum ESPRESSO suite
     for quantum simulation of materials; please cite
         "P. Giannozzi et al., J. Phys.:Condens. Matter 21 395502 (2009);
          URL http://www.quantum-espresso.org", 
     in publications or presentations arising from this work. More details at
     http://www.quantum-espresso.org/quote

     Parallel version (MPI), running on    32 processors
     R & G space division:  proc/nbgrp/npool/nimage =      32
     Reading input from bridge.H2.Au6165.d.2.3.phi.45.psi.90.in
Warning: card &IONS ignored
Warning: card / ignored
Warning: card &CELL ignored
Warning: card / ignored

     Current dimensions of program PWSCF are:
     Max number of different atomic species (ntypx) = 10
     Max number of k-points (npk) =  40000
     Max angular momentum in pseudopotentials (lmaxx) =  3

     IMPORTANT: XC functional enforced from input :
     Exchange-correlation      = VDW-DF ( 1  4  4  0 1 0)
     Any further DFT definition will be discarded
     Please, verify this is what you really want


     Subspace diagonalization in iterative solution of the eigenvalue problem:
     a serial algorithm will be used


     Parallelization info
     --------------------
     sticks:   dense  smooth     PW     G-vecs:    dense   smooth      PW
     Min         578     289     74               118518    41891    5486
     Max         579     290     75               118533    41932    5497
     Sum       18505    9265   2385              3792731  1341081  175711


     Title: 
     bridge.H2.Au6165.d.2.3.phi.45.psi.90                                       


     bravais-lattice index     =            8
     lattice parameter (alat)  =      24.1233  a.u.
     unit-cell volume          =   28076.2361 (a.u.)^3
     number of atoms/cell      =           75
     number of atomic types    =            3
     number of electrons       =       800.00
     number of Kohn-Sham states=          480
     kinetic-energy cutoff     =      50.0000  Ry
     charge density cutoff     =     400.0000  Ry
     convergence threshold     =      1.0E-08
     mixing beta               =       0.7000
     number of iterations used =            8  plain     mixing
     Exchange-correlation      = VDW-DF ( 1  4  4  0 1 0)

     celldm(1)=  24.123277  celldm(2)=   1.000000  celldm(3)=   2.000000
     celldm(4)=   0.000000  celldm(5)=   0.000000  celldm(6)=   0.000000

     crystal axes: (cart. coord. in units of alat)
               a(1) = (   1.000000   0.000000   0.000000 )  
               a(2) = (   0.000000   1.000000   0.000000 )  
               a(3) = (   0.000000   0.000000   2.000000 )  

     reciprocal axes: (cart. coord. in units 2 pi/alat)
               b(1) = (  1.000000  0.000000  0.000000 )  
               b(2) = (  0.000000  1.000000  0.000000 )  
               b(3) = (  0.000000  0.000000  0.500000 )  


     PseudoPot. # 1 for Au read from file:
     /home/scc/andrejb/qe/pseudo/Au.pbe-nd-van.UPF
     MD5 check sum: 458681b50f36d87ef23c61b04bba420a
     Pseudo is Ultrasoft + core correction, Zval = 11.0
     Generated by new atomic code, or converted to UPF format
     Using radial grid of  985 points,  3 beta functions with: 
                l(1) =   1
                l(2) =   2
                l(3) =   2
     Q(r) pseudized with  8 coefficients,  rinner =    1.100   1.100   1.100
                                                       1.100   1.100

     PseudoPot. # 2 for H  read from file:
     /home/scc/andrejb/qe/pseudo/H.pbe-van_ak.UPF
     MD5 check sum: 403db7282739603aa925980fa9b8608d
     Pseudo is Ultrasoft, Zval =  1.0
     Generated by new atomic code, or converted to UPF format
     Using radial grid of  615 points,  1 beta functions with: 
                l(1) =   0
     Q(r) pseudized with  8 coefficients,  rinner =    0.800

     PseudoPot. # 3 for O  read from file:
     /home/scc/andrejb/qe/pseudo/O.pbe-van_ak.UPF
     MD5 check sum: 4b8c549914a63cae506c6ff22b5af4fe
     Pseudo is Ultrasoft, Zval =  6.0
     Generated by new atomic code, or converted to UPF format
     Using radial grid of  737 points,  4 beta functions with: 
                l(1) =   0
                l(2) =   0
                l(3) =   1
                l(4) =   1
     Q(r) pseudized with  8 coefficients,  rinner =    0.800   0.800   0.800


     vdW kernel table read from file vdW_kernel_table
     MD5 check sum: 48e77a2e26edf626eeb0eaa751ad5cac

     atomic species   valence    mass     pseudopotential
        Au            11.00   196.96657     Au( 1.00)
        H              1.00     1.01000     H ( 1.00)
        O              6.00    16.00000     O ( 1.00)

     No symmetry found



   Cartesian axes

     site n.     atom                  positions (alat units)
         1           O   tau(   1) = (   0.2519727   0.3436714   0.7020362  )
         2           H   tau(   2) = (   0.2499161   0.4165269   0.6794918  )
         3           H   tau(   3) = (   0.2460693   0.3034807   0.6374739  )
         4           Au  tau(   4) = (   0.0000000   0.0000000   0.0000000  )
         5           Au  tau(   5) = (   0.3332217   0.0000000   0.0000000  )
         6           Au  tau(   6) = (   0.6664434   0.0000000   0.0000000  )
         7           Au  tau(   7) = (   0.1666109   0.1666109   0.0000000  )
         8           Au  tau(   8) = (   0.4998326   0.1666109   0.0000000  )
         9           Au  tau(   9) = (   0.8330542   0.1666109   0.0000000  )
        10           Au  tau(  10) = (   0.0000000   0.3332217   0.0000000  )
        11           Au  tau(  11) = (   0.3332217   0.3332217   0.0000000  )
        12           Au  tau(  12) = (   0.6664434   0.3332217   0.0000000  )
        13           Au  tau(  13) = (   0.1666109   0.4998326   0.0000000  )
        14           Au  tau(  14) = (   0.4998326   0.4998326   0.0000000  )
        15           Au  tau(  15) = (   0.8330542   0.4998326   0.0000000  )
        16           Au  tau(  16) = (   0.0000000   0.6664434   0.0000000  )
        17           Au  tau(  17) = (   0.3332217   0.6664434   0.0000000  )
        18           Au  tau(  18) = (   0.6664434   0.6664434   0.0000000  )
        19           Au  tau(  19) = (   0.1666109   0.8330542   0.0000000  )
        20           Au  tau(  20) = (   0.4998326   0.8330542   0.0000000  )
        21           Au  tau(  21) = (   0.8330542   0.8330542   0.0000000  )
        22           Au  tau(  22) = (   0.1666109   0.0000000   0.1666109  )
        23           Au  tau(  23) = (   0.4998326   0.0000000   0.1666109  )
        24           Au  tau(  24) = (   0.8330542   0.0000000   0.1666109  )
        25           Au  tau(  25) = (   0.0000000   0.1666109   0.1666109  )
        26           Au  tau(  26) = (   0.3332217   0.1666109   0.1666109  )
        27           Au  tau(  27) = (   0.6664434   0.1666109   0.1666109  )
        28           Au  tau(  28) = (   0.1666109   0.3332217   0.1666109  )
        29           Au  tau(  29) = (   0.4998326   0.3332217   0.1666109  )
        30           Au  tau(  30) = (   0.8330542   0.3332217   0.1666109  )
        31           Au  tau(  31) = (   0.0000000   0.4998326   0.1666109  )
        32           Au  tau(  32) = (   0.3332217   0.4998326   0.1666109  )
        33           Au  tau(  33) = (   0.6664434   0.4998326   0.1666109  )
        34           Au  tau(  34) = (   0.1666109   0.6664434   0.1666109  )
        35           Au  tau(  35) = (   0.4998326   0.6664434   0.1666109  )
        36           Au  tau(  36) = (   0.8330542   0.6664434   0.1666109  )
        37           Au  tau(  37) = (   0.0000000   0.8330542   0.1666109  )
        38           Au  tau(  38) = (   0.3332217   0.8330542   0.1666109  )
        39           Au  tau(  39) = (   0.6664434   0.8330542   0.1666109  )
        40           Au  tau(  40) = (  -0.0000182  -0.0000182   0.3335478  )
        41           Au  tau(  41) = (   0.3332215  -0.0000181   0.3335473  )
        42           Au  tau(  42) = (   0.6664447  -0.0000183   0.3335481  )
        43           Au  tau(  43) = (  -0.0000181   0.3332215   0.3335473  )
        44           Au  tau(  44) = (   0.3332215   0.3332215   0.3335468  )
        45           Au  tau(  45) = (   0.6664445   0.3332215   0.3335477  )
        46           Au  tau(  46) = (  -0.0000183   0.6664447   0.3335481  )
        47           Au  tau(  47) = (   0.3332215   0.6664445   0.3335477  )
        48           Au  tau(  48) = (   0.6664446   0.6664446   0.3335486  )
        49           Au  tau(  49) = (   0.1666097   0.1666097   0.3335483  )
        50           Au  tau(  50) = (   0.4998320   0.1666098   0.3335477  )
        51           Au  tau(  51) = (   0.8330732   0.1666096   0.3335480  )
        52           Au  tau(  52) = (   0.1666098   0.4998320   0.3335477  )
        53           Au  tau(  53) = (   0.4998322   0.4998322   0.3335470  )
        54           Au  tau(  54) = (   0.8330731   0.4998322   0.3335474  )
        55           Au  tau(  55) = (   0.1666096   0.8330732   0.3335480  )
        56           Au  tau(  56) = (   0.4998322   0.8330731   0.3335474  )
        57           Au  tau(  57) = (   0.8330731   0.8330731   0.3335478  )
        58           Au  tau(  58) = (   0.1666104  -0.0000111   0.4993095  )
        59           Au  tau(  59) = (   0.4998323  -0.0000112   0.4993099  )
        60           Au  tau(  60) = (   0.8330660  -0.0000111   0.4993009  )
        61           Au  tau(  61) = (  -0.0000111   0.1666104   0.4993095  )
        62           Au  tau(  62) = (   0.3332213   0.1666106   0.4993185  )
        63           Au  tau(  63) = (   0.6664437   0.1666106   0.4993187  )
        64           Au  tau(  64) = (   0.1666106   0.3332213   0.4993185  )
        65           Au  tau(  65) = (   0.4998324   0.3332216   0.4993185  )
        66           Au  tau(  66) = (   0.8330658   0.3332215   0.4993102  )
        67           Au  tau(  67) = (  -0.0000112   0.4998323   0.4993099  )
        68           Au  tau(  68) = (   0.3332216   0.4998324   0.4993185  )
        69           Au  tau(  69) = (   0.6664437   0.4998325   0.4993187  )
        70           Au  tau(  70) = (   0.1666106   0.6664437   0.4993187  )
        71           Au  tau(  71) = (   0.4998325   0.6664437   0.4993187  )
        72           Au  tau(  72) = (   0.8330658   0.6664438   0.4993102  )
        73           Au  tau(  73) = (  -0.0000111   0.8330660   0.4993009  )
        74           Au  tau(  74) = (   0.3332215   0.8330658   0.4993102  )
        75           Au  tau(  75) = (   0.6664438   0.8330658   0.4993102  )

     number of k points=     6  Marzari-Vanderbilt smearing, width (Ry)=  0.0200
                       cart. coord. in units 2pi/alat
        k(    1) = (   0.2500000   0.2500000   0.0833333), wk =   0.3333333
        k(    2) = (   0.2500000   0.2500000  -0.2500000), wk =   0.3333333
        k(    3) = (  -0.2500000  -0.2500000   0.0833333), wk =   0.3333333
        k(    4) = (  -0.2500000   0.2500000  -0.0833333), wk =   0.3333333
        k(    5) = (   0.2500000  -0.2500000  -0.0833333), wk =   0.3333333
        k(    6) = (  -0.2500000   0.2500000   0.2500000), wk =   0.3333333

     Dense  grid:  3792731 G-vectors     FFT dimensions: ( 160, 160, 320)

     Smooth grid:  1341081 G-vectors     FFT dimensions: ( 120, 120, 225)

     Largest allocated arrays     est. size (Mb)     dimensions
        Kohn-Sham Wavefunctions        38.58 Mb     (    5267,  480)
        NL pseudopotentials            76.03 Mb     (    5267,  946)
        Each V/rho on FFT grid          3.91 Mb     (  256000)
        Each G-vector array             0.90 Mb     (  118520)
        G-vector shells                 0.08 Mb     (   10286)
     Largest temporary arrays     est. size (Mb)     dimensions
        Auxiliary wavefunctions       154.31 Mb     (    5267, 1920)
        Each subspace H/S matrix       56.25 Mb     (    1920, 1920)
        Each <psi_i|beta_j> matrix      6.93 Mb     (     946,  480)
        Arrays for rho mixing          31.25 Mb     (  256000,    8)

     Initial potential from superposition of free atoms
     Check: negative starting charge=   -1.945236

     starting charge  799.16392, renormalised to  800.00000

     negative rho (up, down):  1.947E+00 0.000E+00


     ************************************************************************
     *
     * You are using vdW-DF for exchange-correlation in this calculation.
     * Please cite the following three references that made this development
     * possible:
     *
     *   M. Dion, H. Rydberg, E. Schroder, D. C. Langreth, and
     *   B. I. Lundqvist, Phys. Rev. Lett. 92, 246401 (2004).
     *
     *   T. Thonhauser, V. R. Cooper, S. Li, A. Puzder, P. Hyldgaard, and
     *   D. C. Langreth, Phys. Rev. B 76, 125112 (2007).
     *
     *   G. Roman-Perez and J. M. Soler, Phys. Rev. Lett. 103, 096102 (2009).
     *
     *
     * If you are using vdW-DF2, please also cite:
     *
     *   K. Lee, E. D. Murray, L. Kong, B. I. Lundqvist, and
     *   D. C. Langreth, Phys. Rev. B 82, 081101(R) (2010).
     *
     *
     * If you are calculating the stress with vdW-DF, please also cite:
     *
     *   R. Sabatini, E. Kucukbenli, B. Kolb, T. Thonhauser, and
     *   S. de Gironcoli, J. Phys.: Condens. Matter 24, 424209 (2012).
     *
     ************************************************************************

     Carrying out vdW-DF run using the following parameters:

     Nqs =      20    Nr_points =    1024   r_max =   100.000
     q_mesh =
               0.00001000     0.04494208     0.09755937     0.15916263
               0.23128650     0.31572767     0.41458969     0.53033537
               0.66584808     0.82450364     1.01025438     1.22772762
               1.48234092     1.78043706     2.12944203     2.53805004
               3.01644009     3.57652955     4.23227104     5.00000000

     Gradients computed in reciprocal space

     ************************************************************************


     Starting wfc are  654 randomized atomic wfcs

     total cpu time spent up to now is      127.0 secs

     Self-consistent Calculation

     iteration #  1     ecut=    50.00 Ry     beta=0.70
     Davidson diagonalization with overlap
     ethr =  1.00E-02,  avg # of iterations =  3.0

     Threshold (ethr) on eigenvalues was too large:
     Diagonalizing with lowered threshold

     Davidson diagonalization with overlap
     ethr =  4.07E-04,  avg # of iterations =  2.0

     negative rho (up, down):  1.947E+00 0.000E+00

     total cpu time spent up to now is      557.8 secs

     total energy              =   -7423.08634816 Ry
     Harris-Foulkes estimate   =   -7426.02291292 Ry
     estimated scf accuracy    <       3.63241663 Ry

     iteration #  2     ecut=    50.00 Ry     beta=0.70
     Davidson diagonalization with overlap
     ethr =  4.54E-04,  avg # of iterations = 11.3

     negative rho (up, down):  1.943E+00 0.000E+00

     total cpu time spent up to now is     1305.8 secs

     total energy              =   -7415.76482145 Ry
     Harris-Foulkes estimate   =   -7432.27887633 Ry
     estimated scf accuracy    <      84.67390400 Ry

     iteration #  3     ecut=    50.00 Ry     beta=0.70
     Davidson diagonalization with overlap
     ethr =  4.54E-04,  avg # of iterations =  6.0

     negative rho (up, down):  1.953E+00 0.000E+00

     total cpu time spent up to now is     1758.6 secs

     total energy              =   -7424.09826479 Ry
     Harris-Foulkes estimate   =   -7425.85241715 Ry
     estimated scf accuracy    <       7.30050323 Ry

     iteration #  4     ecut=    50.00 Ry     beta=0.70
     Davidson diagonalization with overlap
     ethr =  4.54E-04,  avg # of iterations =  4.0

     negative rho (up, down):  1.956E+00 0.000E+00

     total cpu time spent up to now is     1999.2 secs

     total energy              =   -7424.87580772 Ry
     Harris-Foulkes estimate   =   -7425.62001809 Ry
     estimated scf accuracy    <       3.72002017 Ry

     iteration #  5     ecut=    50.00 Ry     beta=0.70
     Davidson diagonalization with overlap
     ethr =  4.54E-04,  avg # of iterations =  5.0

     negative rho (up, down):  1.963E+00 0.000E+00

     total cpu time spent up to now is     2251.9 secs

     total energy              =   -7425.02881985 Ry
     Harris-Foulkes estimate   =   -7425.56690015 Ry
     estimated scf accuracy    <       4.12591894 Ry

     iteration #  6     ecut=    50.00 Ry     beta=0.70
     Davidson diagonalization with overlap
     ethr =  4.54E-04,  avg # of iterations =  3.0

     negative rho (up, down):  1.966E+00 0.000E+00

     total cpu time spent up to now is     2474.9 secs

     total energy              =   -7425.24948489 Ry
     Harris-Foulkes estimate   =   -7425.31335287 Ry
     estimated scf accuracy    <       0.24593621 Ry

     iteration #  7     ecut=    50.00 Ry     beta=0.70
     Davidson diagonalization with overlap
     ethr =  3.07E-05,  avg # of iterations =  5.7

     negative rho (up, down):  1.970E+00 0.000E+00

     total cpu time spent up to now is     2752.0 secs

     total energy              =   -7425.25808887 Ry
     Harris-Foulkes estimate   =   -7425.30527180 Ry
     estimated scf accuracy    <       0.25141688 Ry

     iteration #  8     ecut=    50.00 Ry     beta=0.70
     Davidson diagonalization with overlap
     ethr =  3.07E-05,  avg # of iterations =  3.0

     negative rho (up, down):  1.971E+00 0.000E+00

     total cpu time spent up to now is     2978.3 secs

     total energy              =   -7425.26674086 Ry
     Harris-Foulkes estimate   =   -7425.28625491 Ry
     estimated scf accuracy    <       0.08452489 Ry

     iteration #  9     ecut=    50.00 Ry     beta=0.70
     Davidson diagonalization with overlap
     ethr =  1.06E-05,  avg # of iterations =  5.8

     negative rho (up, down):  1.972E+00 0.000E+00

     total cpu time spent up to now is     3251.2 secs

     total energy              =   -7425.26787944 Ry
     Harris-Foulkes estimate   =   -7425.27790320 Ry
     estimated scf accuracy    <       0.03546674 Ry

     iteration # 10     ecut=    50.00 Ry     beta=0.70
     Davidson diagonalization with overlap
     c_bands:  3 eigenvalues not converged
     c_bands:  2 eigenvalues not converged
     ethr =  4.43E-06,  avg # of iterations = 16.0

     negative rho (up, down):  1.972E+00 0.000E+00

     total cpu time spent up to now is     3656.2 secs

     total energy              =   -7425.26933422 Ry
     Harris-Foulkes estimate   =   -7425.27228189 Ry
     estimated scf accuracy    <       0.00919755 Ry

     iteration # 11     ecut=    50.00 Ry     beta=0.70
     Davidson diagonalization with overlap
     ethr =  1.15E-06,  avg # of iterations =  4.0

     negative rho (up, down):  1.973E+00 0.000E+00

     total cpu time spent up to now is     3910.6 secs

     total energy              =   -7425.26973328 Ry
     Harris-Foulkes estimate   =   -7425.27088405 Ry
     estimated scf accuracy    <       0.00374863 Ry

     iteration # 12     ecut=    50.00 Ry     beta=0.70
     Davidson diagonalization with overlap
     ethr =  4.69E-07,  avg # of iterations =  2.8

     negative rho (up, down):  1.974E+00 0.000E+00

     total cpu time spent up to now is     4141.6 secs

     total energy              =   -7425.26946872 Ry
     Harris-Foulkes estimate   =   -7425.27029334 Ry
     estimated scf accuracy    <       0.00157718 Ry

     iteration # 13     ecut=    50.00 Ry     beta=0.70
     Davidson diagonalization with overlap
     ethr =  1.97E-07,  avg # of iterations =  4.0

     negative rho (up, down):  1.974E+00 0.000E+00

     total cpu time spent up to now is     4492.5 secs

     total energy              =   -7425.26868781 Ry
     Harris-Foulkes estimate   =   -7425.27138374 Ry
     estimated scf accuracy    <       0.01440253 Ry

     iteration # 14     ecut=    50.00 Ry     beta=0.70
     Davidson diagonalization with overlap
     ethr =  1.97E-07,  avg # of iterations =  3.0

     negative rho (up, down):  1.974E+00 0.000E+00

     total cpu time spent up to now is     4775.7 secs

     total energy              =   -7425.26992166 Ry
     Harris-Foulkes estimate   =   -7425.27005698 Ry
     estimated scf accuracy    <       0.00043421 Ry

     iteration # 15     ecut=    50.00 Ry     beta=0.70
     Davidson diagonalization with overlap
     ethr =  5.43E-08,  avg # of iterations =  2.0

     negative rho (up, down):  1.974E+00 0.000E+00

     total cpu time spent up to now is     5011.6 secs

     total energy              =   -7425.26988471 Ry
     Harris-Foulkes estimate   =   -7425.27008973 Ry
     estimated scf accuracy    <       0.00118580 Ry

     iteration # 16     ecut=    50.00 Ry     beta=0.70
     Davidson diagonalization with overlap
     ethr =  5.43E-08,  avg # of iterations =  2.0

     negative rho (up, down):  1.973E+00 0.000E+00

     total cpu time spent up to now is     5228.6 secs

     total energy              =   -7425.26990625 Ry
     Harris-Foulkes estimate   =   -7425.27012099 Ry
     estimated scf accuracy    <       0.00166223 Ry

     iteration # 17     ecut=    50.00 Ry     beta=0.70
     Davidson diagonalization with overlap
     ethr =  5.43E-08,  avg # of iterations =  2.0

     negative rho (up, down):  1.973E+00 0.000E+00

     total cpu time spent up to now is     5458.2 secs

     total energy              =   -7425.26999653 Ry
     Harris-Foulkes estimate   =   -7425.27002311 Ry
     estimated scf accuracy    <       0.00011889 Ry

     iteration # 18     ecut=    50.00 Ry     beta=0.70
     Davidson diagonalization with overlap
     ethr =  1.49E-08,  avg # of iterations =  2.0

     negative rho (up, down):  1.973E+00 0.000E+00

     total cpu time spent up to now is     5672.2 secs

     total energy              =   -7425.27001038 Ry
     Harris-Foulkes estimate   =   -7425.27001364 Ry
     estimated scf accuracy    <       0.00001357 Ry

     iteration # 19     ecut=    50.00 Ry     beta=0.70
     Davidson diagonalization with overlap
     ethr =  1.70E-09,  avg # of iterations =  2.0

     negative rho (up, down):  1.973E+00 0.000E+00

     total cpu time spent up to now is     5920.3 secs

     total energy              =   -7425.27001172 Ry
     Harris-Foulkes estimate   =   -7425.27001307 Ry
     estimated scf accuracy    <       0.00000467 Ry

     iteration # 20     ecut=    50.00 Ry     beta=0.70
     Davidson diagonalization with overlap
     ethr =  5.84E-10,  avg # of iterations =  2.0

     negative rho (up, down):  1.973E+00 0.000E+00

     total cpu time spent up to now is     6146.5 secs

     total energy              =   -7425.27001229 Ry
     Harris-Foulkes estimate   =   -7425.27001284 Ry
     estimated scf accuracy    <       0.00000206 Ry

     iteration # 21     ecut=    50.00 Ry     beta=0.70
     Davidson diagonalization with overlap
     ethr =  2.57E-10,  avg # of iterations =  2.0

     negative rho (up, down):  1.973E+00 0.000E+00

     total cpu time spent up to now is     6364.8 secs

     total energy              =   -7425.27001256 Ry
     Harris-Foulkes estimate   =   -7425.27001265 Ry
     estimated scf accuracy    <       0.00000027 Ry

     iteration # 22     ecut=    50.00 Ry     beta=0.70
     Davidson diagonalization with overlap
     ethr =  3.34E-11,  avg # of iterations =  3.0

     negative rho (up, down):  1.973E+00 0.000E+00

     total cpu time spent up to now is     6658.8 secs

     total energy              =   -7425.27001261 Ry
     Harris-Foulkes estimate   =   -7425.27001266 Ry
     estimated scf accuracy    <       0.00000019 Ry

     iteration # 23     ecut=    50.00 Ry     beta=0.70
     Davidson diagonalization with overlap
     ethr =  2.32E-11,  avg # of iterations =  3.0

     negative rho (up, down):  1.973E+00 0.000E+00

     total cpu time spent up to now is     6918.3 secs

     total energy              =   -7425.27001261 Ry
     Harris-Foulkes estimate   =   -7425.27001267 Ry
     estimated scf accuracy    <       0.00000027 Ry

     iteration # 24     ecut=    50.00 Ry     beta=0.70
     Davidson diagonalization with overlap
     ethr =  2.32E-11,  avg # of iterations =  2.0

     negative rho (up, down):  1.973E+00 0.000E+00

     total cpu time spent up to now is     7140.3 secs

     total energy              =   -7425.27001265 Ry
     Harris-Foulkes estimate   =   -7425.27001265 Ry
     estimated scf accuracy    <       0.00000004 Ry

     iteration # 25     ecut=    50.00 Ry     beta=0.70
     Davidson diagonalization with overlap
     ethr =  5.41E-12,  avg # of iterations =  2.0

     negative rho (up, down):  1.973E+00 0.000E+00

     total cpu time spent up to now is     7376.0 secs

     total energy              =   -7425.27001265 Ry
     Harris-Foulkes estimate   =   -7425.27001265 Ry
     estimated scf accuracy    <       0.00000002 Ry

     iteration # 26     ecut=    50.00 Ry     beta=0.70
     Davidson diagonalization with overlap
     ethr =  2.48E-12,  avg # of iterations =  2.0

     negative rho (up, down):  1.973E+00 0.000E+00

     total cpu time spent up to now is     7599.5 secs

     total energy              =   -7425.27001265 Ry
     Harris-Foulkes estimate   =   -7425.27001266 Ry
     estimated scf accuracy    <       0.00000001 Ry

     iteration # 27     ecut=    50.00 Ry     beta=0.70
     Davidson diagonalization with overlap
     ethr =  1.50E-12,  avg # of iterations =  3.0

     negative rho (up, down):  1.973E+00 0.000E+00

     total cpu time spent up to now is     7833.9 secs

     End of self-consistent calculation

          k = 0.2500 0.2500 0.0833 (167653 PWs)   bands (ev):

   -19.4848  -7.4457  -6.9040  -6.3782  -6.3751  -5.9465  -5.5440  -5.4463
    -5.4434  -5.2495  -5.2486  -5.1450  -5.1296  -5.0523  -5.0312  -4.9564
    -4.8722  -4.8686  -4.8337  -4.8277  -4.6731  -4.6533  -4.6510  -4.6487
    -4.6422  -4.5903  -4.5874  -4.5768  -4.5742  -4.5399  -4.5356  -4.5246
    -4.4844  -4.4829  -4.4531  -4.4488  -4.4178  -4.3954  -4.3908  -4.3851
    -4.3790  -4.3674  -4.3655  -4.3344  -4.3103  -4.3069  -4.3008  -4.2987
    -4.2766  -4.2413  -4.2188  -4.2030  -4.2012  -4.1974  -4.1910  -4.1863
    -4.1851  -4.1833  -4.1402  -4.1184  -4.0856  -4.0687  -4.0626  -4.0450
    -4.0309  -4.0227  -4.0080  -4.0070  -4.0049  -4.0017  -3.9588  -3.9519
    -3.9434  -3.9381  -3.9169  -3.8345  -3.8328  -3.8258  -3.8018  -3.7906
    -3.7773  -3.7626  -3.7377  -3.7283  -3.7062  -3.7045  -3.6867  -3.6823
    -3.6745  -3.6713  -3.6171  -3.6160  -3.5994  -3.5805  -3.5745  -3.5710
    -3.5692  -3.5608  -3.5430  -3.5364  -3.5067  -3.5008  -3.4888  -3.4762
    -3.4529  -3.4445  -3.4360  -3.4050  -3.4026  -3.3696  -3.3663  -3.3294
    -3.3226  -3.3213  -3.3085  -3.3062  -3.3024  -3.2979  -3.2715  -3.2526
    -3.2168  -3.2141  -3.2060  -3.1985  -3.1960  -3.1942  -3.1729  -3.1714
    -3.1536  -3.1512  -3.1472  -3.1228  -3.1206  -3.1144  -3.1128  -3.1070
    -3.0749  -3.0740  -3.0412  -3.0354  -3.0342  -3.0321  -3.0302  -2.9519
    -2.9472  -2.9422  -2.9400  -2.9363  -2.9356  -2.9326  -2.9300  -2.9294
    -2.9286  -2.9200  -2.9122  -2.9007  -2.8942  -2.8912  -2.8876  -2.8777
    -2.8734  -2.8391  -2.8370  -2.8345  -2.8285  -2.8276  -2.8130  -2.8106
    -2.8044  -2.8029  -2.7993  -2.7447  -2.7420  -2.7375  -2.7356  -2.7322
    -2.7263  -2.7020  -2.6482  -2.6451  -2.6431  -2.6382  -2.6288  -2.6279
    -2.6237  -2.6128  -2.6098  -2.5876  -2.5741  -2.5716  -2.5680  -2.5630
    -2.5598  -2.5290  -2.5260  -2.5168  -2.5140  -2.5118  -2.5108  -2.4681
    -2.4591  -2.4436  -2.3982  -2.3942  -2.3798  -2.3760  -2.3717  -2.3648
    -2.3238  -2.3199  -2.2996  -2.2945  -2.2738  -2.2695  -2.2639  -2.2465
    -2.2436  -2.2362  -2.2191  -2.1961  -2.1807  -2.1667  -2.1634  -2.1602
    -2.1588  -2.1516  -2.1491  -2.1362  -2.1344  -2.1324  -2.1287  -2.1240
    -2.1231  -2.1186  -2.1132  -2.0959  -2.0953  -2.0919  -2.0887  -2.0855
    -2.0819  -2.0655  -2.0596  -2.0500  -2.0490  -2.0402  -2.0357  -2.0039
    -1.9765  -1.9693  -1.9353  -1.9280  -1.9198  -1.9162  -1.9035  -1.8922
    -1.8832  -1.8779  -1.8721  -1.8679  -1.8648  -1.8636  -1.8580  -1.8337
    -1.8287  -1.8281  -1.7900  -1.7841  -1.7531  -1.7430  -1.7143  -1.6965
    -1.6884  -1.6784  -1.6625  -1.6536  -1.6452  -1.6375  -1.6293  -1.6185
    -1.6171  -1.6140  -1.6129  -1.6105  -1.6097  -1.6069  -1.5916  -1.5854
    -1.5790  -1.5626  -1.5523  -1.5450  -1.5342  -1.5169  -1.5144  -1.5102
    -1.5098  -1.5038  -1.4924  -1.4839  -1.4699  -1.4654  -1.4535  -1.4485
    -1.4450  -1.4293  -1.4103  -1.4037  -1.3991  -1.3916  -1.3879  -1.3574
    -1.3525  -1.3463  -1.3452  -1.3417  -1.3284  -1.3194  -1.3159  -1.3087
    -1.2973  -1.2932  -1.2903  -1.2841  -1.2835  -1.2728  -1.2693  -1.2598
    -1.2555  -1.2511  -1.2493  -1.2388  -1.2328  -1.2294  -1.2186  -1.1886
    -1.1842  -1.1826  -1.1772  -1.1765  -1.1618  -1.1428  -1.1229  -1.1210
    -1.1196  -1.1184  -1.1149  -1.1115  -1.1071  -1.0958  -1.0870  -1.0607
    -1.0533  -1.0520  -1.0465  -1.0306  -1.0299  -1.0201  -0.9938  -0.9827
    -0.9589  -0.9539  -0.9287  -0.9283  -0.9235  -0.9228  -0.9197  -0.9152
    -0.9136  -0.9130  -0.9072  -0.9062  -0.8769  -0.8759  -0.8571  -0.8557
    -0.8511  -0.8503  -0.8473  -0.8331  -0.8303  -0.5649  -0.5427  -0.4848
    -0.4736  -0.4498  -0.2884  -0.2259  -0.2236  -0.1809   0.0939   0.1005
     0.4274   0.4352   0.5222   0.5238   0.5649   0.5665   0.7125   0.7185
     0.8303   0.8357   0.9335   1.5224   1.5364   1.5376   1.5711   1.5838
     1.6344   1.6409   1.7094   1.7118   1.9134   1.9142   2.1572   2.2310
     2.2329   2.2470   2.6312   2.6356   2.6970   2.6996   2.7065   2.7100
     2.8568   2.8588   2.9227   3.0090   3.0103   3.2361   3.2400   3.3666
     3.3940   3.3964   3.6689   3.6734   3.7823   3.7990   3.7999   3.8880
     3.9010   3.9809   3.9890   4.2178   4.2234   4.3167   4.3178   4.4267
     4.4392   4.4648   4.4684   4.6426   5.2665   5.2932   5.3650   5.3694
     5.3771   5.5426   5.5530   5.6166   5.6608   5.6653   5.6764   5.7105
     5.7160   5.7250   5.7522   5.7633   6.0178   6.0269   6.0449   6.0522
     6.0594   6.0624   6.0721   6.0737   6.1466   6.1719   6.1795   6.1902

          k = 0.2500 0.2500-0.2500 (167588 PWs)   bands (ev):

   -19.4848  -7.4457  -6.9040  -6.3782  -6.3751  -5.9465  -5.5440  -5.4463
    -5.4434  -5.2495  -5.2486  -5.1450  -5.1296  -5.0523  -5.0312  -4.9564
    -4.8722  -4.8685  -4.8337  -4.8277  -4.6731  -4.6533  -4.6510  -4.6487
    -4.6422  -4.5903  -4.5874  -4.5768  -4.5742  -4.5399  -4.5356  -4.5246
    -4.4844  -4.4829  -4.4531  -4.4488  -4.4178  -4.3954  -4.3908  -4.3851
    -4.3790  -4.3674  -4.3655  -4.3344  -4.3103  -4.3069  -4.3008  -4.2987
    -4.2766  -4.2413  -4.2188  -4.2030  -4.2012  -4.1974  -4.1911  -4.1863
    -4.1851  -4.1833  -4.1402  -4.1184  -4.0856  -4.0687  -4.0626  -4.0450
    -4.0309  -4.0227  -4.0080  -4.0070  -4.0049  -4.0017  -3.9588  -3.9519
    -3.9434  -3.9381  -3.9169  -3.8345  -3.8328  -3.8258  -3.8018  -3.7906
    -3.7773  -3.7626  -3.7377  -3.7283  -3.7062  -3.7045  -3.6867  -3.6823
    -3.6745  -3.6713  -3.6171  -3.6160  -3.5994  -3.5805  -3.5745  -3.5710
    -3.5692  -3.5608  -3.5430  -3.5364  -3.5067  -3.5008  -3.4888  -3.4762
    -3.4529  -3.4445  -3.4360  -3.4050  -3.4026  -3.3696  -3.3663  -3.3294
    -3.3226  -3.3213  -3.3085  -3.3062  -3.3024  -3.2979  -3.2715  -3.2526
    -3.2168  -3.2141  -3.2060  -3.1985  -3.1960  -3.1942  -3.1729  -3.1714
    -3.1536  -3.1512  -3.1472  -3.1228  -3.1206  -3.1144  -3.1128  -3.1070
    -3.0749  -3.0740  -3.0412  -3.0354  -3.0342  -3.0321  -3.0302  -2.9519
    -2.9472  -2.9422  -2.9400  -2.9363  -2.9356  -2.9326  -2.9300  -2.9294
    -2.9286  -2.9200  -2.9122  -2.9007  -2.8942  -2.8912  -2.8876  -2.8777
    -2.8734  -2.8391  -2.8370  -2.8344  -2.8285  -2.8276  -2.8130  -2.8106
    -2.8044  -2.8029  -2.7993  -2.7447  -2.7420  -2.7375  -2.7356  -2.7322
    -2.7263  -2.7020  -2.6482  -2.6451  -2.6431  -2.6382  -2.6288  -2.6279
    -2.6237  -2.6128  -2.6098  -2.5876  -2.5741  -2.5716  -2.5680  -2.5630
    -2.5597  -2.5290  -2.5260  -2.5168  -2.5140  -2.5118  -2.5108  -2.4681
    -2.4591  -2.4436  -2.3981  -2.3942  -2.3799  -2.3760  -2.3717  -2.3648
    -2.3238  -2.3199  -2.2996  -2.2946  -2.2738  -2.2695  -2.2639  -2.2465
    -2.2436  -2.2362  -2.2191  -2.1961  -2.1807  -2.1667  -2.1634  -2.1602
    -2.1588  -2.1516  -2.1491  -2.1362  -2.1344  -2.1324  -2.1287  -2.1240
    -2.1231  -2.1186  -2.1132  -2.0959  -2.0953  -2.0919  -2.0888  -2.0855
    -2.0819  -2.0655  -2.0596  -2.0500  -2.0490  -2.0402  -2.0357  -2.0040
    -1.9765  -1.9693  -1.9353  -1.9280  -1.9198  -1.9162  -1.9035  -1.8922
    -1.8832  -1.8779  -1.8721  -1.8679  -1.8648  -1.8636  -1.8580  -1.8337
    -1.8287  -1.8281  -1.7900  -1.7841  -1.7531  -1.7430  -1.7143  -1.6965
    -1.6884  -1.6784  -1.6625  -1.6536  -1.6452  -1.6375  -1.6293  -1.6185
    -1.6171  -1.6140  -1.6129  -1.6105  -1.6097  -1.6069  -1.5916  -1.5854
    -1.5790  -1.5626  -1.5523  -1.5450  -1.5342  -1.5169  -1.5144  -1.5102
    -1.5098  -1.5038  -1.4924  -1.4839  -1.4699  -1.4654  -1.4535  -1.4485
    -1.4450  -1.4293  -1.4103  -1.4037  -1.3992  -1.3916  -1.3879  -1.3574
    -1.3524  -1.3463  -1.3452  -1.3417  -1.3284  -1.3194  -1.3159  -1.3087
    -1.2973  -1.2932  -1.2903  -1.2841  -1.2835  -1.2728  -1.2693  -1.2598
    -1.2555  -1.2511  -1.2493  -1.2388  -1.2327  -1.2294  -1.2186  -1.1886
    -1.1842  -1.1826  -1.1772  -1.1765  -1.1618  -1.1428  -1.1229  -1.1210
    -1.1196  -1.1184  -1.1149  -1.1115  -1.1071  -1.0958  -1.0870  -1.0607
    -1.0533  -1.0520  -1.0465  -1.0306  -1.0299  -1.0201  -0.9938  -0.9827
    -0.9589  -0.9538  -0.9287  -0.9283  -0.9235  -0.9228  -0.9197  -0.9152
    -0.9136  -0.9130  -0.9072  -0.9062  -0.8769  -0.8759  -0.8571  -0.8557
    -0.8511  -0.8503  -0.8473  -0.8331  -0.8303  -0.5649  -0.5427  -0.4848
    -0.4736  -0.4498  -0.2884  -0.2259  -0.2236  -0.1809   0.0939   0.1005
     0.4274   0.4352   0.5222   0.5238   0.5649   0.5665   0.7126   0.7185
     0.8303   0.8357   0.9335   1.5224   1.5364   1.5376   1.5711   1.5838
     1.6344   1.6409   1.7094   1.7118   1.9134   1.9142   2.1572   2.2310
     2.2329   2.2470   2.6312   2.6356   2.6970   2.6996   2.7065   2.7100
     2.8568   2.8588   2.9227   3.0090   3.0103   3.2361   3.2400   3.3666
     3.3940   3.3964   3.6689   3.6734   3.7823   3.7990   3.7999   3.8881
     3.9010   3.9809   3.9890   4.2178   4.2234   4.3167   4.3178   4.4267
     4.4392   4.4648   4.4683   4.6427   5.2660   5.2932   5.3489   5.3676
     5.3711   5.5424   5.5530   5.6159   5.6616   5.6665   5.6961   5.7106
     5.7170   5.7334   5.7623   5.7850   6.0178   6.0268   6.0450   6.0524
     6.0597   6.0624   6.0720   6.0734   6.1444   6.1549   6.1781   6.2810

          k =-0.2500-0.2500 0.0833 (167653 PWs)   bands (ev):

   -19.4848  -7.4457  -6.9040  -6.3782  -6.3751  -5.9465  -5.5440  -5.4463
    -5.4434  -5.2495  -5.2486  -5.1450  -5.1296  -5.0523  -5.0312  -4.9564
    -4.8722  -4.8686  -4.8337  -4.8277  -4.6731  -4.6533  -4.6510  -4.6487
    -4.6422  -4.5903  -4.5874  -4.5768  -4.5742  -4.5399  -4.5356  -4.5246
    -4.4844  -4.4829  -4.4531  -4.4488  -4.4178  -4.3954  -4.3908  -4.3851
    -4.3790  -4.3674  -4.3655  -4.3344  -4.3103  -4.3069  -4.3008  -4.2987
    -4.2766  -4.2413  -4.2188  -4.2030  -4.2012  -4.1974  -4.1910  -4.1863
    -4.1851  -4.1833  -4.1402  -4.1184  -4.0856  -4.0687  -4.0626  -4.0450
    -4.0309  -4.0227  -4.0080  -4.0070  -4.0049  -4.0017  -3.9588  -3.9519
    -3.9434  -3.9381  -3.9169  -3.8345  -3.8328  -3.8258  -3.8018  -3.7906
    -3.7773  -3.7626  -3.7377  -3.7283  -3.7062  -3.7045  -3.6867  -3.6823
    -3.6745  -3.6713  -3.6171  -3.6160  -3.5994  -3.5805  -3.5745  -3.5710
    -3.5692  -3.5608  -3.5430  -3.5364  -3.5067  -3.5008  -3.4888  -3.4762
    -3.4529  -3.4445  -3.4360  -3.4050  -3.4026  -3.3696  -3.3663  -3.3294
    -3.3226  -3.3213  -3.3085  -3.3062  -3.3024  -3.2979  -3.2715  -3.2526
    -3.2168  -3.2141  -3.2060  -3.1985  -3.1960  -3.1942  -3.1729  -3.1714
    -3.1536  -3.1512  -3.1472  -3.1228  -3.1206  -3.1144  -3.1128  -3.1070
    -3.0749  -3.0740  -3.0412  -3.0354  -3.0342  -3.0321  -3.0302  -2.9519
    -2.9472  -2.9422  -2.9400  -2.9363  -2.9356  -2.9326  -2.9300  -2.9294
    -2.9286  -2.9200  -2.9122  -2.9007  -2.8942  -2.8912  -2.8876  -2.8777
    -2.8734  -2.8391  -2.8370  -2.8345  -2.8285  -2.8276  -2.8130  -2.8106
    -2.8044  -2.8029  -2.7993  -2.7447  -2.7420  -2.7375  -2.7356  -2.7322
    -2.7263  -2.7020  -2.6482  -2.6451  -2.6431  -2.6382  -2.6288  -2.6279
    -2.6237  -2.6128  -2.6098  -2.5876  -2.5741  -2.5716  -2.5680  -2.5630
    -2.5598  -2.5290  -2.5260  -2.5168  -2.5140  -2.5118  -2.5108  -2.4681
    -2.4591  -2.4436  -2.3982  -2.3942  -2.3798  -2.3760  -2.3717  -2.3648
    -2.3238  -2.3199  -2.2996  -2.2945  -2.2738  -2.2695  -2.2639  -2.2465
    -2.2436  -2.2362  -2.2191  -2.1961  -2.1807  -2.1667  -2.1634  -2.1602
    -2.1588  -2.1516  -2.1491  -2.1362  -2.1344  -2.1324  -2.1287  -2.1240
    -2.1231  -2.1186  -2.1132  -2.0959  -2.0953  -2.0919  -2.0887  -2.0855
    -2.0819  -2.0655  -2.0596  -2.0500  -2.0490  -2.0402  -2.0357  -2.0039
    -1.9765  -1.9693  -1.9353  -1.9280  -1.9198  -1.9162  -1.9035  -1.8922
    -1.8832  -1.8779  -1.8721  -1.8679  -1.8648  -1.8636  -1.8580  -1.8337
    -1.8287  -1.8281  -1.7900  -1.7842  -1.7531  -1.7430  -1.7143  -1.6965
    -1.6884  -1.6784  -1.6625  -1.6536  -1.6452  -1.6375  -1.6293  -1.6185
    -1.6171  -1.6140  -1.6129  -1.6105  -1.6097  -1.6069  -1.5916  -1.5854
    -1.5790  -1.5626  -1.5523  -1.5450  -1.5342  -1.5169  -1.5144  -1.5102
    -1.5098  -1.5038  -1.4924  -1.4839  -1.4699  -1.4654  -1.4535  -1.4485
    -1.4450  -1.4293  -1.4103  -1.4037  -1.3991  -1.3916  -1.3879  -1.3574
    -1.3525  -1.3463  -1.3452  -1.3417  -1.3284  -1.3194  -1.3159  -1.3087
    -1.2973  -1.2932  -1.2903  -1.2841  -1.2835  -1.2728  -1.2693  -1.2598
    -1.2555  -1.2511  -1.2493  -1.2388  -1.2328  -1.2294  -1.2186  -1.1886
    -1.1842  -1.1826  -1.1772  -1.1765  -1.1618  -1.1428  -1.1229  -1.1210
    -1.1196  -1.1184  -1.1149  -1.1115  -1.1071  -1.0958  -1.0870  -1.0607
    -1.0533  -1.0520  -1.0465  -1.0306  -1.0299  -1.0201  -0.9938  -0.9827
    -0.9589  -0.9539  -0.9287  -0.9283  -0.9235  -0.9228  -0.9197  -0.9152
    -0.9136  -0.9130  -0.9072  -0.9062  -0.8769  -0.8759  -0.8571  -0.8557
    -0.8511  -0.8503  -0.8473  -0.8331  -0.8303  -0.5649  -0.5427  -0.4848
    -0.4736  -0.4498  -0.2884  -0.2259  -0.2236  -0.1809   0.0939   0.1005
     0.4274   0.4352   0.5222   0.5238   0.5649   0.5665   0.7125   0.7185
     0.8303   0.8357   0.9335   1.5224   1.5364   1.5376   1.5711   1.5838
     1.6344   1.6409   1.7094   1.7118   1.9134   1.9142   2.1572   2.2310
     2.2329   2.2470   2.6312   2.6356   2.6970   2.6996   2.7065   2.7100
     2.8568   2.8588   2.9227   3.0090   3.0103   3.2361   3.2400   3.3666
     3.3940   3.3964   3.6689   3.6734   3.7823   3.7990   3.7999   3.8880
     3.9010   3.9809   3.9890   4.2178   4.2234   4.3167   4.3178   4.4267
     4.4392   4.4648   4.4684   4.6426   5.2666   5.2932   5.3650   5.3695
     5.3769   5.5425   5.5530   5.6166   5.6605   5.6657   5.6763   5.7105
     5.7163   5.7250   5.7523   5.7634   6.0177   6.0268   6.0448   6.0522
     6.0593   6.0624   6.0721   6.0737   6.1461   6.1718   6.1790   6.1912

          k =-0.2500 0.2500-0.0833 (167653 PWs)   bands (ev):

   -19.4848  -7.4456  -6.9043  -6.3778  -6.3747  -5.9475  -5.5443  -5.4472
    -5.4434  -5.2489  -5.2476  -5.1440  -5.1294  -5.0520  -5.0328  -4.9574
    -4.8727  -4.8675  -4.8310  -4.8278  -4.6731  -4.6526  -4.6508  -4.6488
    -4.6422  -4.5894  -4.5875  -4.5784  -4.5741  -4.5415  -4.5372  -4.5245
    -4.4849  -4.4831  -4.4527  -4.4494  -4.4173  -4.3957  -4.3910  -4.3853
    -4.3792  -4.3676  -4.3656  -4.3349  -4.3094  -4.3065  -4.3000  -4.2988
    -4.2786  -4.2395  -4.2142  -4.2029  -4.2010  -4.1989  -4.1915  -4.1872
    -4.1854  -4.1835  -4.1405  -4.1188  -4.0929  -4.0687  -4.0592  -4.0418
    -4.0323  -4.0198  -4.0094  -4.0073  -4.0064  -4.0018  -3.9609  -3.9515
    -3.9424  -3.9380  -3.9095  -3.8338  -3.8324  -3.8261  -3.8059  -3.7908
    -3.7779  -3.7627  -3.7373  -3.7312  -3.7062  -3.7046  -3.6874  -3.6854
    -3.6744  -3.6710  -3.6174  -3.6163  -3.5922  -3.5809  -3.5738  -3.5707
    -3.5692  -3.5582  -3.5435  -3.5389  -3.5060  -3.4997  -3.4874  -3.4801
    -3.4513  -3.4463  -3.4365  -3.4046  -3.3992  -3.3691  -3.3661  -3.3305
    -3.3224  -3.3214  -3.3086  -3.3072  -3.3025  -3.2998  -3.2712  -3.2532
    -3.2169  -3.2139  -3.2059  -3.1990  -3.1959  -3.1946  -3.1723  -3.1712
    -3.1539  -3.1515  -3.1473  -3.1233  -3.1207  -3.1145  -3.1119  -3.1076
    -3.0760  -3.0737  -3.0394  -3.0355  -3.0342  -3.0317  -3.0302  -2.9514
    -2.9481  -2.9424  -2.9399  -2.9364  -2.9356  -2.9329  -2.9297  -2.9289
    -2.9285  -2.9200  -2.9122  -2.9006  -2.8939  -2.8911  -2.8868  -2.8784
    -2.8703  -2.8386  -2.8376  -2.8346  -2.8290  -2.8287  -2.8125  -2.8105
    -2.8040  -2.8020  -2.7993  -2.7452  -2.7422  -2.7366  -2.7359  -2.7318
    -2.7244  -2.7034  -2.6498  -2.6451  -2.6429  -2.6381  -2.6280  -2.6273
    -2.6242  -2.6134  -2.6095  -2.5866  -2.5740  -2.5709  -2.5667  -2.5633
    -2.5608  -2.5283  -2.5257  -2.5165  -2.5142  -2.5125  -2.5110  -2.4692
    -2.4579  -2.4462  -2.3984  -2.3941  -2.3814  -2.3753  -2.3715  -2.3652
    -2.3266  -2.3202  -2.3000  -2.2966  -2.2724  -2.2704  -2.2639  -2.2469
    -2.2433  -2.2362  -2.2182  -2.1992  -2.1797  -2.1688  -2.1637  -2.1606
    -2.1585  -2.1513  -2.1497  -2.1362  -2.1338  -2.1320  -2.1295  -2.1239
    -2.1228  -2.1183  -2.1139  -2.0968  -2.0954  -2.0933  -2.0879  -2.0853
    -2.0815  -2.0655  -2.0603  -2.0516  -2.0490  -2.0408  -2.0370  -2.0045
    -1.9767  -1.9695  -1.9353  -1.9256  -1.9180  -1.9144  -1.9037  -1.8915
    -1.8831  -1.8760  -1.8722  -1.8672  -1.8649  -1.8622  -1.8566  -1.8330
    -1.8284  -1.8276  -1.7923  -1.7843  -1.7522  -1.7421  -1.7146  -1.6967
    -1.6892  -1.6806  -1.6620  -1.6532  -1.6479  -1.6362  -1.6287  -1.6223
    -1.6173  -1.6136  -1.6125  -1.6106  -1.6096  -1.6064  -1.5909  -1.5849
    -1.5757  -1.5626  -1.5529  -1.5434  -1.5322  -1.5181  -1.5143  -1.5101
    -1.5095  -1.5033  -1.4910  -1.4820  -1.4700  -1.4630  -1.4549  -1.4486
    -1.4464  -1.4289  -1.4144  -1.4022  -1.3992  -1.3915  -1.3877  -1.3582
    -1.3516  -1.3467  -1.3435  -1.3410  -1.3293  -1.3203  -1.3158  -1.3083
    -1.2969  -1.2934  -1.2901  -1.2839  -1.2833  -1.2741  -1.2697  -1.2600
    -1.2560  -1.2509  -1.2494  -1.2393  -1.2313  -1.2289  -1.2207  -1.1875
    -1.1849  -1.1831  -1.1767  -1.1760  -1.1629  -1.1426  -1.1235  -1.1206
    -1.1198  -1.1177  -1.1143  -1.1111  -1.1066  -1.0957  -1.0859  -1.0610
    -1.0535  -1.0519  -1.0462  -1.0314  -1.0301  -1.0200  -0.9929  -0.9823
    -0.9590  -0.9539  -0.9295  -0.9283  -0.9234  -0.9225  -0.9198  -0.9153
    -0.9132  -0.9129  -0.9075  -0.9067  -0.8772  -0.8759  -0.8568  -0.8557
    -0.8510  -0.8505  -0.8465  -0.8345  -0.8298  -0.5652  -0.5426  -0.4848
    -0.4734  -0.4502  -0.2906  -0.2272  -0.2236  -0.1810   0.0950   0.1003
     0.4269   0.4357   0.5201   0.5248   0.5626   0.5661   0.7128   0.7183
     0.8306   0.8362   0.9338   1.5223   1.5357   1.5396   1.5755   1.5839
     1.6320   1.6422   1.7080   1.7133   1.9105   1.9163   2.1588   2.2311
     2.2327   2.2467   2.6299   2.6382   2.6962   2.7012   2.7059   2.7101
     2.8548   2.8604   2.9226   3.0057   3.0096   3.2336   3.2376   3.3668
     3.3927   3.3994   3.6662   3.6734   3.7886   3.7980   3.8013   3.8851
     3.9017   3.9772   3.9888   4.2126   4.2262   4.3177   4.3195   4.4332
     4.4381   4.4637   4.4729   4.6444   5.2654   5.2950   5.3623   5.3685
     5.3786   5.5388   5.5503   5.6170   5.6612   5.6706   5.6762   5.6977
     5.7143   5.7303   5.7475   5.7633   6.0174   6.0345   6.0451   6.0532
     6.0634   6.0652   6.0692   6.0726   6.1467   6.1696   6.1795   6.1895

          k = 0.2500-0.2500-0.0833 (167653 PWs)   bands (ev):

   -19.4848  -7.4456  -6.9043  -6.3778  -6.3747  -5.9475  -5.5443  -5.4472
    -5.4434  -5.2489  -5.2476  -5.1440  -5.1294  -5.0520  -5.0328  -4.9574
    -4.8727  -4.8675  -4.8310  -4.8278  -4.6731  -4.6526  -4.6508  -4.6488
    -4.6422  -4.5894  -4.5875  -4.5784  -4.5741  -4.5415  -4.5372  -4.5245
    -4.4849  -4.4831  -4.4527  -4.4494  -4.4173  -4.3957  -4.3910  -4.3853
    -4.3792  -4.3676  -4.3656  -4.3349  -4.3094  -4.3065  -4.3000  -4.2988
    -4.2786  -4.2395  -4.2142  -4.2029  -4.2010  -4.1989  -4.1915  -4.1872
    -4.1854  -4.1835  -4.1405  -4.1188  -4.0929  -4.0687  -4.0592  -4.0418
    -4.0323  -4.0198  -4.0094  -4.0073  -4.0064  -4.0018  -3.9609  -3.9515
    -3.9424  -3.9380  -3.9095  -3.8338  -3.8324  -3.8261  -3.8059  -3.7908
    -3.7779  -3.7627  -3.7373  -3.7312  -3.7062  -3.7046  -3.6874  -3.6854
    -3.6744  -3.6710  -3.6174  -3.6163  -3.5922  -3.5809  -3.5738  -3.5707
    -3.5692  -3.5582  -3.5435  -3.5389  -3.5060  -3.4997  -3.4874  -3.4801
    -3.4513  -3.4463  -3.4365  -3.4046  -3.3992  -3.3691  -3.3661  -3.3305
    -3.3224  -3.3214  -3.3086  -3.3072  -3.3025  -3.2998  -3.2712  -3.2532
    -3.2169  -3.2139  -3.2059  -3.1990  -3.1959  -3.1946  -3.1723  -3.1712
    -3.1539  -3.1515  -3.1473  -3.1233  -3.1207  -3.1145  -3.1119  -3.1076
    -3.0760  -3.0737  -3.0394  -3.0355  -3.0342  -3.0318  -3.0302  -2.9514
    -2.9481  -2.9424  -2.9399  -2.9364  -2.9356  -2.9329  -2.9297  -2.9289
    -2.9285  -2.9200  -2.9122  -2.9006  -2.8939  -2.8911  -2.8868  -2.8784
    -2.8703  -2.8386  -2.8376  -2.8346  -2.8290  -2.8287  -2.8125  -2.8105
    -2.8040  -2.8020  -2.7993  -2.7452  -2.7422  -2.7366  -2.7359  -2.7318
    -2.7244  -2.7034  -2.6498  -2.6451  -2.6429  -2.6381  -2.6280  -2.6273
    -2.6242  -2.6134  -2.6095  -2.5866  -2.5740  -2.5709  -2.5667  -2.5633
    -2.5608  -2.5283  -2.5257  -2.5165  -2.5142  -2.5125  -2.5110  -2.4692
    -2.4579  -2.4462  -2.3984  -2.3941  -2.3814  -2.3753  -2.3715  -2.3652
    -2.3266  -2.3202  -2.3000  -2.2966  -2.2724  -2.2704  -2.2639  -2.2469
    -2.2433  -2.2362  -2.2182  -2.1992  -2.1797  -2.1688  -2.1637  -2.1606
    -2.1585  -2.1513  -2.1497  -2.1362  -2.1338  -2.1320  -2.1295  -2.1239
    -2.1228  -2.1183  -2.1139  -2.0968  -2.0954  -2.0933  -2.0879  -2.0853
    -2.0815  -2.0655  -2.0603  -2.0516  -2.0490  -2.0408  -2.0370  -2.0045
    -1.9767  -1.9695  -1.9353  -1.9256  -1.9180  -1.9144  -1.9037  -1.8915
    -1.8831  -1.8760  -1.8722  -1.8672  -1.8649  -1.8622  -1.8566  -1.8330
    -1.8284  -1.8276  -1.7923  -1.7843  -1.7522  -1.7421  -1.7146  -1.6967
    -1.6892  -1.6806  -1.6620  -1.6532  -1.6479  -1.6362  -1.6287  -1.6223
    -1.6173  -1.6136  -1.6125  -1.6106  -1.6096  -1.6064  -1.5909  -1.5849
    -1.5757  -1.5626  -1.5529  -1.5434  -1.5322  -1.5181  -1.5143  -1.5101
    -1.5095  -1.5033  -1.4910  -1.4820  -1.4700  -1.4630  -1.4549  -1.4486
    -1.4464  -1.4289  -1.4144  -1.4022  -1.3992  -1.3915  -1.3877  -1.3582
    -1.3516  -1.3467  -1.3435  -1.3410  -1.3293  -1.3203  -1.3158  -1.3083
    -1.2969  -1.2934  -1.2901  -1.2839  -1.2833  -1.2741  -1.2697  -1.2600
    -1.2560  -1.2509  -1.2494  -1.2393  -1.2313  -1.2289  -1.2207  -1.1875
    -1.1849  -1.1831  -1.1767  -1.1760  -1.1629  -1.1426  -1.1235  -1.1206
    -1.1198  -1.1177  -1.1143  -1.1111  -1.1066  -1.0957  -1.0859  -1.0610
    -1.0535  -1.0519  -1.0462  -1.0314  -1.0301  -1.0200  -0.9929  -0.9823
    -0.9590  -0.9539  -0.9295  -0.9283  -0.9234  -0.9225  -0.9198  -0.9153
    -0.9132  -0.9129  -0.9075  -0.9067  -0.8772  -0.8759  -0.8568  -0.8557
    -0.8510  -0.8505  -0.8465  -0.8345  -0.8298  -0.5652  -0.5426  -0.4848
    -0.4734  -0.4502  -0.2906  -0.2272  -0.2236  -0.1810   0.0950   0.1003
     0.4269   0.4357   0.5201   0.5248   0.5626   0.5661   0.7128   0.7183
     0.8306   0.8362   0.9338   1.5223   1.5357   1.5396   1.5755   1.5839
     1.6320   1.6422   1.7080   1.7133   1.9105   1.9163   2.1588   2.2311
     2.2327   2.2467   2.6299   2.6382   2.6962   2.7012   2.7059   2.7101
     2.8548   2.8604   2.9226   3.0057   3.0096   3.2336   3.2376   3.3668
     3.3927   3.3994   3.6662   3.6734   3.7886   3.7980   3.8013   3.8851
     3.9017   3.9772   3.9888   4.2126   4.2262   4.3177   4.3195   4.4332
     4.4381   4.4637   4.4729   4.6444   5.2654   5.2950   5.3624   5.3685
     5.3786   5.5388   5.5503   5.6169   5.6612   5.6704   5.6766   5.6975
     5.7142   5.7307   5.7473   5.7635   6.0175   6.0345   6.0450   6.0532
     6.0635   6.0653   6.0693   6.0726   6.1476   6.1698   6.1787   6.1886

          k =-0.2500 0.2500 0.2500 (167588 PWs)   bands (ev):

   -19.4848  -7.4456  -6.9043  -6.3778  -6.3747  -5.9475  -5.5443  -5.4472
    -5.4434  -5.2489  -5.2476  -5.1440  -5.1294  -5.0520  -5.0328  -4.9574
    -4.8726  -4.8675  -4.8310  -4.8278  -4.6731  -4.6526  -4.6508  -4.6488
    -4.6422  -4.5894  -4.5875  -4.5784  -4.5741  -4.5415  -4.5372  -4.5245
    -4.4849  -4.4831  -4.4527  -4.4494  -4.4173  -4.3956  -4.3910  -4.3854
    -4.3792  -4.3676  -4.3656  -4.3349  -4.3094  -4.3065  -4.3000  -4.2988
    -4.2786  -4.2395  -4.2142  -4.2029  -4.2010  -4.1989  -4.1915  -4.1872
    -4.1854  -4.1835  -4.1405  -4.1188  -4.0929  -4.0687  -4.0592  -4.0418
    -4.0323  -4.0198  -4.0094  -4.0073  -4.0064  -4.0018  -3.9609  -3.9515
    -3.9424  -3.9380  -3.9095  -3.8338  -3.8324  -3.8261  -3.8059  -3.7908
    -3.7779  -3.7627  -3.7373  -3.7312  -3.7062  -3.7046  -3.6874  -3.6854
    -3.6744  -3.6710  -3.6174  -3.6163  -3.5922  -3.5809  -3.5738  -3.5707
    -3.5692  -3.5582  -3.5435  -3.5389  -3.5060  -3.4997  -3.4874  -3.4801
    -3.4513  -3.4463  -3.4365  -3.4046  -3.3992  -3.3691  -3.3661  -3.3305
    -3.3224  -3.3214  -3.3086  -3.3072  -3.3025  -3.2998  -3.2712  -3.2532
    -3.2168  -3.2139  -3.2059  -3.1990  -3.1959  -3.1946  -3.1723  -3.1712
    -3.1539  -3.1515  -3.1473  -3.1233  -3.1207  -3.1145  -3.1119  -3.1076
    -3.0760  -3.0737  -3.0394  -3.0355  -3.0342  -3.0317  -3.0302  -2.9514
    -2.9481  -2.9424  -2.9399  -2.9364  -2.9356  -2.9329  -2.9297  -2.9289
    -2.9285  -2.9200  -2.9122  -2.9006  -2.8939  -2.8911  -2.8867  -2.8784
    -2.8703  -2.8386  -2.8376  -2.8346  -2.8290  -2.8287  -2.8125  -2.8105
    -2.8040  -2.8020  -2.7993  -2.7452  -2.7422  -2.7366  -2.7359  -2.7318
    -2.7244  -2.7034  -2.6498  -2.6451  -2.6429  -2.6381  -2.6280  -2.6273
    -2.6242  -2.6134  -2.6095  -2.5866  -2.5740  -2.5709  -2.5667  -2.5633
    -2.5608  -2.5283  -2.5257  -2.5165  -2.5142  -2.5125  -2.5110  -2.4692
    -2.4579  -2.4462  -2.3984  -2.3941  -2.3814  -2.3753  -2.3715  -2.3652
    -2.3266  -2.3202  -2.3000  -2.2966  -2.2724  -2.2704  -2.2639  -2.2469
    -2.2433  -2.2362  -2.2182  -2.1992  -2.1797  -2.1688  -2.1637  -2.1606
    -2.1585  -2.1513  -2.1497  -2.1362  -2.1338  -2.1320  -2.1295  -2.1239
    -2.1228  -2.1183  -2.1139  -2.0968  -2.0954  -2.0933  -2.0879  -2.0853
    -2.0815  -2.0655  -2.0603  -2.0516  -2.0490  -2.0408  -2.0370  -2.0045
    -1.9767  -1.9695  -1.9353  -1.9256  -1.9180  -1.9144  -1.9037  -1.8915
    -1.8831  -1.8760  -1.8722  -1.8672  -1.8649  -1.8622  -1.8566  -1.8330
    -1.8284  -1.8276  -1.7923  -1.7843  -1.7522  -1.7421  -1.7147  -1.6967
    -1.6892  -1.6806  -1.6620  -1.6532  -1.6479  -1.6362  -1.6287  -1.6223
    -1.6173  -1.6136  -1.6125  -1.6106  -1.6096  -1.6064  -1.5909  -1.5849
    -1.5757  -1.5626  -1.5529  -1.5434  -1.5322  -1.5181  -1.5143  -1.5101
    -1.5095  -1.5033  -1.4910  -1.4820  -1.4700  -1.4630  -1.4549  -1.4486
    -1.4464  -1.4289  -1.4144  -1.4022  -1.3992  -1.3915  -1.3877  -1.3582
    -1.3516  -1.3467  -1.3435  -1.3410  -1.3293  -1.3203  -1.3158  -1.3083
    -1.2969  -1.2934  -1.2901  -1.2839  -1.2833  -1.2741  -1.2697  -1.2600
    -1.2561  -1.2508  -1.2494  -1.2393  -1.2313  -1.2289  -1.2207  -1.1875
    -1.1849  -1.1831  -1.1767  -1.1760  -1.1629  -1.1426  -1.1235  -1.1206
    -1.1198  -1.1176  -1.1143  -1.1111  -1.1066  -1.0957  -1.0859  -1.0610
    -1.0535  -1.0519  -1.0462  -1.0314  -1.0301  -1.0200  -0.9929  -0.9823
    -0.9590  -0.9539  -0.9295  -0.9283  -0.9234  -0.9225  -0.9198  -0.9153
    -0.9132  -0.9129  -0.9076  -0.9067  -0.8772  -0.8759  -0.8568  -0.8557
    -0.8510  -0.8505  -0.8465  -0.8345  -0.8298  -0.5652  -0.5426  -0.4848
    -0.4734  -0.4502  -0.2906  -0.2272  -0.2236  -0.1810   0.0950   0.1003
     0.4269   0.4357   0.5201   0.5248   0.5626   0.5661   0.7128   0.7183
     0.8306   0.8362   0.9338   1.5223   1.5357   1.5396   1.5755   1.5839
     1.6320   1.6422   1.7080   1.7133   1.9105   1.9163   2.1588   2.2311
     2.2326   2.2467   2.6299   2.6382   2.6962   2.7012   2.7059   2.7101
     2.8548   2.8604   2.9226   3.0057   3.0096   3.2337   3.2376   3.3668
     3.3927   3.3994   3.6662   3.6734   3.7886   3.7980   3.8013   3.8851
     3.9017   3.9772   3.9888   4.2126   4.2262   4.3177   4.3195   4.4332
     4.4381   4.4637   4.4729   4.6445   5.2647   5.2950   5.3479   5.3684
     5.3694   5.5386   5.5503   5.6164   5.6630   5.6706   5.6911   5.7029
     5.7197   5.7296   5.7615   5.7857   6.0174   6.0348   6.0451   6.0534
     6.0635   6.0653   6.0695   6.0726   6.1445   6.1570   6.1731   6.2842

     the Fermi energy is     0.7860 ev

!    total energy              =   -7425.27001265 Ry
     Harris-Foulkes estimate   =   -7425.27001265 Ry
     estimated scf accuracy    <          7.6E-09 Ry

     The total energy is the sum of the following terms:

     one-electron contribution =  -48898.93562909 Ry
     hartree contribution      =   24997.88407270 Ry
     xc contribution           =   -3604.28373556 Ry
     ewald contribution        =   20080.06758167 Ry
     smearing contrib. (-TS)   =      -0.00230238 Ry

     convergence has been achieved in  27 iterations

     Writing output data file 2396288.save

     init_run     :    116.39s CPU    124.91s WALL (       1 calls)
     electrons    :   7191.34s CPU   7708.23s WALL (       1 calls)

     Called by init_run:
     wfcinit      :     76.75s CPU     84.32s WALL (       1 calls)
     potinit      :      7.57s CPU      8.09s WALL (       1 calls)

     Called by electrons:
     c_bands      :   5447.63s CPU   5862.56s WALL (      28 calls)
     sum_band     :   1090.32s CPU   1171.90s WALL (      28 calls)
     v_of_rho     :    138.99s CPU    151.32s WALL (      28 calls)
     newd         :    529.85s CPU    536.47s WALL (      28 calls)
     mix_rho      :      4.21s CPU      4.60s WALL (      28 calls)
     vdW_energy   :     12.08s CPU     13.59s WALL (      28 calls)
     vdW_ffts     :     71.18s CPU     77.05s WALL (      56 calls)
     vdW_v        :     17.09s CPU     18.07s WALL (      28 calls)

     Called by c_bands:
     init_us_2    :     16.98s CPU     17.34s WALL (     342 calls)
     cegterg      :   5383.37s CPU   5797.21s WALL (     168 calls)

     Called by *egterg:
     h_psi        :   2350.34s CPU   2717.28s WALL (     820 calls)
     s_psi        :    366.93s CPU    369.01s WALL (     820 calls)
     g_psi        :      4.58s CPU      4.60s WALL (     646 calls)
     cdiaghg      :   1416.84s CPU   1421.08s WALL (     808 calls)

     Called by h_psi:
     add_vuspsi   :    367.61s CPU    370.26s WALL (     820 calls)

     General routines
     calbec       :    568.22s CPU    570.56s WALL (     988 calls)
     fft          :    156.45s CPU    166.79s WALL (    1848 calls)
     ffts         :      1.78s CPU      2.06s WALL (      56 calls)
     fftw         :   1513.42s CPU   1860.81s WALL (  452990 calls)
     interpolate  :      5.35s CPU      6.12s WALL (      56 calls)
     davcio       :      0.00s CPU      0.18s WALL (       6 calls)

     Parallel routines
     fft_scatter  :   1057.91s CPU   1298.81s WALL (  454894 calls)

     PWSCF        :     2h 1m CPU        2h10m WALL


   This run was terminated on:  11: 3:14  24Aug2015            

=------------------------------------------------------------------------------=
   JOB DONE.
=------------------------------------------------------------------------------=
