Setting SGE environment for SCC

     Program PWSCF v.5.1.2 starts on  2Jul2015 at  6: 7:57 

     This program is part of the open-source Quantum ESPRESSO suite
     for quantum simulation of materials; please cite
         "P. Giannozzi et al., J. Phys.:Condens. Matter 21 395502 (2009);
          URL http://www.quantum-espresso.org", 
     in publications or presentations arising from this work. More details at
     http://www.quantum-espresso.org/quote

     Parallel version (MPI), running on    32 processors
     R & G space division:  proc/nbgrp/npool/nimage =      32
     Reading input from bridge.H2.Au6165.d.2.0.phi.45.psi.90.in
Warning: card &IONS ignored
Warning: card / ignored
Warning: card &CELL ignored
Warning: card / ignored

     Current dimensions of program PWSCF are:
     Max number of different atomic species (ntypx) = 10
     Max number of k-points (npk) =  40000
     Max angular momentum in pseudopotentials (lmaxx) =  3

     IMPORTANT: XC functional enforced from input :
     Exchange-correlation      = VDW-DF ( 1  4  4  0 1 0)
     Any further DFT definition will be discarded
     Please, verify this is what you really want


     Subspace diagonalization in iterative solution of the eigenvalue problem:
     a serial algorithm will be used


     Parallelization info
     --------------------
     sticks:   dense  smooth     PW     G-vecs:    dense   smooth      PW
     Min         578     289     74               118518    41891    5486
     Max         579     290     75               118533    41932    5497
     Sum       18505    9265   2385              3792731  1341081  175711


     Title: 
     bridge.H2.Au6165.d.2.0.phi.45.psi.90                                       


     bravais-lattice index     =            8
     lattice parameter (alat)  =      24.1233  a.u.
     unit-cell volume          =   28076.2361 (a.u.)^3
     number of atoms/cell      =           75
     number of atomic types    =            3
     number of electrons       =       800.00
     number of Kohn-Sham states=          480
     kinetic-energy cutoff     =      50.0000  Ry
     charge density cutoff     =     400.0000  Ry
     convergence threshold     =      1.0E-08
     mixing beta               =       0.7000
     number of iterations used =            8  plain     mixing
     Exchange-correlation      = VDW-DF ( 1  4  4  0 1 0)

     celldm(1)=  24.123277  celldm(2)=   1.000000  celldm(3)=   2.000000
     celldm(4)=   0.000000  celldm(5)=   0.000000  celldm(6)=   0.000000

     crystal axes: (cart. coord. in units of alat)
               a(1) = (   1.000000   0.000000   0.000000 )  
               a(2) = (   0.000000   1.000000   0.000000 )  
               a(3) = (   0.000000   0.000000   2.000000 )  

     reciprocal axes: (cart. coord. in units 2 pi/alat)
               b(1) = (  1.000000  0.000000  0.000000 )  
               b(2) = (  0.000000  1.000000  0.000000 )  
               b(3) = (  0.000000  0.000000  0.500000 )  


     PseudoPot. # 1 for Au read from file:
     /home/scc/andrejb/qe/pseudo/Au.pbe-nd-van.UPF
     MD5 check sum: 458681b50f36d87ef23c61b04bba420a
     Pseudo is Ultrasoft + core correction, Zval = 11.0
     Generated by new atomic code, or converted to UPF format
     Using radial grid of  985 points,  3 beta functions with: 
                l(1) =   1
                l(2) =   2
                l(3) =   2
     Q(r) pseudized with  8 coefficients,  rinner =    1.100   1.100   1.100
                                                       1.100   1.100

     PseudoPot. # 2 for H  read from file:
     /home/scc/andrejb/qe/pseudo/H.pbe-van_ak.UPF
     MD5 check sum: 403db7282739603aa925980fa9b8608d
     Pseudo is Ultrasoft, Zval =  1.0
     Generated by new atomic code, or converted to UPF format
     Using radial grid of  615 points,  1 beta functions with: 
                l(1) =   0
     Q(r) pseudized with  8 coefficients,  rinner =    0.800

     PseudoPot. # 3 for O  read from file:
     /home/scc/andrejb/qe/pseudo/O.pbe-van_ak.UPF
     MD5 check sum: 4b8c549914a63cae506c6ff22b5af4fe
     Pseudo is Ultrasoft, Zval =  6.0
     Generated by new atomic code, or converted to UPF format
     Using radial grid of  737 points,  4 beta functions with: 
                l(1) =   0
                l(2) =   0
                l(3) =   1
                l(4) =   1
     Q(r) pseudized with  8 coefficients,  rinner =    0.800   0.800   0.800


     vdW kernel table read from file vdW_kernel_table
     MD5 check sum: 48e77a2e26edf626eeb0eaa751ad5cac

     atomic species   valence    mass     pseudopotential
        Au            11.00   196.96657     Au( 1.00)
        H              1.00     1.01000     H ( 1.00)
        O              6.00    16.00000     O ( 1.00)

     No symmetry found



   Cartesian axes

     site n.     atom                  positions (alat units)
         1           O   tau(   1) = (   0.2519727   0.3436714   0.6785353  )
         2           H   tau(   2) = (   0.2499161   0.4165269   0.6559909  )
         3           H   tau(   3) = (   0.2460693   0.3034807   0.6139730  )
         4           Au  tau(   4) = (   0.0000000   0.0000000   0.0000000  )
         5           Au  tau(   5) = (   0.3332217   0.0000000   0.0000000  )
         6           Au  tau(   6) = (   0.6664434   0.0000000   0.0000000  )
         7           Au  tau(   7) = (   0.1666109   0.1666109   0.0000000  )
         8           Au  tau(   8) = (   0.4998326   0.1666109   0.0000000  )
         9           Au  tau(   9) = (   0.8330542   0.1666109   0.0000000  )
        10           Au  tau(  10) = (   0.0000000   0.3332217   0.0000000  )
        11           Au  tau(  11) = (   0.3332217   0.3332217   0.0000000  )
        12           Au  tau(  12) = (   0.6664434   0.3332217   0.0000000  )
        13           Au  tau(  13) = (   0.1666109   0.4998326   0.0000000  )
        14           Au  tau(  14) = (   0.4998326   0.4998326   0.0000000  )
        15           Au  tau(  15) = (   0.8330542   0.4998326   0.0000000  )
        16           Au  tau(  16) = (   0.0000000   0.6664434   0.0000000  )
        17           Au  tau(  17) = (   0.3332217   0.6664434   0.0000000  )
        18           Au  tau(  18) = (   0.6664434   0.6664434   0.0000000  )
        19           Au  tau(  19) = (   0.1666109   0.8330542   0.0000000  )
        20           Au  tau(  20) = (   0.4998326   0.8330542   0.0000000  )
        21           Au  tau(  21) = (   0.8330542   0.8330542   0.0000000  )
        22           Au  tau(  22) = (   0.1666109   0.0000000   0.1666109  )
        23           Au  tau(  23) = (   0.4998326   0.0000000   0.1666109  )
        24           Au  tau(  24) = (   0.8330542   0.0000000   0.1666109  )
        25           Au  tau(  25) = (   0.0000000   0.1666109   0.1666109  )
        26           Au  tau(  26) = (   0.3332217   0.1666109   0.1666109  )
        27           Au  tau(  27) = (   0.6664434   0.1666109   0.1666109  )
        28           Au  tau(  28) = (   0.1666109   0.3332217   0.1666109  )
        29           Au  tau(  29) = (   0.4998326   0.3332217   0.1666109  )
        30           Au  tau(  30) = (   0.8330542   0.3332217   0.1666109  )
        31           Au  tau(  31) = (   0.0000000   0.4998326   0.1666109  )
        32           Au  tau(  32) = (   0.3332217   0.4998326   0.1666109  )
        33           Au  tau(  33) = (   0.6664434   0.4998326   0.1666109  )
        34           Au  tau(  34) = (   0.1666109   0.6664434   0.1666109  )
        35           Au  tau(  35) = (   0.4998326   0.6664434   0.1666109  )
        36           Au  tau(  36) = (   0.8330542   0.6664434   0.1666109  )
        37           Au  tau(  37) = (   0.0000000   0.8330542   0.1666109  )
        38           Au  tau(  38) = (   0.3332217   0.8330542   0.1666109  )
        39           Au  tau(  39) = (   0.6664434   0.8330542   0.1666109  )
        40           Au  tau(  40) = (  -0.0000182  -0.0000182   0.3335478  )
        41           Au  tau(  41) = (   0.3332215  -0.0000181   0.3335473  )
        42           Au  tau(  42) = (   0.6664447  -0.0000183   0.3335481  )
        43           Au  tau(  43) = (  -0.0000181   0.3332215   0.3335473  )
        44           Au  tau(  44) = (   0.3332215   0.3332215   0.3335468  )
        45           Au  tau(  45) = (   0.6664445   0.3332215   0.3335477  )
        46           Au  tau(  46) = (  -0.0000183   0.6664447   0.3335481  )
        47           Au  tau(  47) = (   0.3332215   0.6664445   0.3335477  )
        48           Au  tau(  48) = (   0.6664446   0.6664446   0.3335486  )
        49           Au  tau(  49) = (   0.1666097   0.1666097   0.3335483  )
        50           Au  tau(  50) = (   0.4998320   0.1666098   0.3335477  )
        51           Au  tau(  51) = (   0.8330732   0.1666096   0.3335480  )
        52           Au  tau(  52) = (   0.1666098   0.4998320   0.3335477  )
        53           Au  tau(  53) = (   0.4998322   0.4998322   0.3335470  )
        54           Au  tau(  54) = (   0.8330731   0.4998322   0.3335474  )
        55           Au  tau(  55) = (   0.1666096   0.8330732   0.3335480  )
        56           Au  tau(  56) = (   0.4998322   0.8330731   0.3335474  )
        57           Au  tau(  57) = (   0.8330731   0.8330731   0.3335478  )
        58           Au  tau(  58) = (   0.1666104  -0.0000111   0.4993095  )
        59           Au  tau(  59) = (   0.4998323  -0.0000112   0.4993099  )
        60           Au  tau(  60) = (   0.8330660  -0.0000111   0.4993009  )
        61           Au  tau(  61) = (  -0.0000111   0.1666104   0.4993095  )
        62           Au  tau(  62) = (   0.3332213   0.1666106   0.4993185  )
        63           Au  tau(  63) = (   0.6664437   0.1666106   0.4993187  )
        64           Au  tau(  64) = (   0.1666106   0.3332213   0.4993185  )
        65           Au  tau(  65) = (   0.4998324   0.3332216   0.4993185  )
        66           Au  tau(  66) = (   0.8330658   0.3332215   0.4993102  )
        67           Au  tau(  67) = (  -0.0000112   0.4998323   0.4993099  )
        68           Au  tau(  68) = (   0.3332216   0.4998324   0.4993185  )
        69           Au  tau(  69) = (   0.6664437   0.4998325   0.4993187  )
        70           Au  tau(  70) = (   0.1666106   0.6664437   0.4993187  )
        71           Au  tau(  71) = (   0.4998325   0.6664437   0.4993187  )
        72           Au  tau(  72) = (   0.8330658   0.6664438   0.4993102  )
        73           Au  tau(  73) = (  -0.0000111   0.8330660   0.4993009  )
        74           Au  tau(  74) = (   0.3332215   0.8330658   0.4993102  )
        75           Au  tau(  75) = (   0.6664438   0.8330658   0.4993102  )

     number of k points=     6  Marzari-Vanderbilt smearing, width (Ry)=  0.0200
                       cart. coord. in units 2pi/alat
        k(    1) = (   0.2500000   0.2500000   0.0833333), wk =   0.3333333
        k(    2) = (   0.2500000   0.2500000  -0.2500000), wk =   0.3333333
        k(    3) = (  -0.2500000  -0.2500000   0.0833333), wk =   0.3333333
        k(    4) = (  -0.2500000   0.2500000  -0.0833333), wk =   0.3333333
        k(    5) = (   0.2500000  -0.2500000  -0.0833333), wk =   0.3333333
        k(    6) = (  -0.2500000   0.2500000   0.2500000), wk =   0.3333333

     Dense  grid:  3792731 G-vectors     FFT dimensions: ( 160, 160, 320)

     Smooth grid:  1341081 G-vectors     FFT dimensions: ( 120, 120, 225)

     Largest allocated arrays     est. size (Mb)     dimensions
        Kohn-Sham Wavefunctions        38.58 Mb     (    5267,  480)
        NL pseudopotentials            76.03 Mb     (    5267,  946)
        Each V/rho on FFT grid          3.91 Mb     (  256000)
        Each G-vector array             0.90 Mb     (  118520)
        G-vector shells                 0.08 Mb     (   10286)
     Largest temporary arrays     est. size (Mb)     dimensions
        Auxiliary wavefunctions       154.31 Mb     (    5267, 1920)
        Each subspace H/S matrix       56.25 Mb     (    1920, 1920)
        Each <psi_i|beta_j> matrix      6.93 Mb     (     946,  480)
        Arrays for rho mixing          31.25 Mb     (  256000,    8)

     Initial potential from superposition of free atoms
     Check: negative starting charge=   -1.945175

     starting charge  799.16392, renormalised to  800.00000

     negative rho (up, down):  1.947E+00 0.000E+00


     ************************************************************************
     *
     * You are using vdW-DF for exchange-correlation in this calculation.
     * Please cite the following three references that made this development
     * possible:
     *
     *   M. Dion, H. Rydberg, E. Schroder, D. C. Langreth, and
     *   B. I. Lundqvist, Phys. Rev. Lett. 92, 246401 (2004).
     *
     *   T. Thonhauser, V. R. Cooper, S. Li, A. Puzder, P. Hyldgaard, and
     *   D. C. Langreth, Phys. Rev. B 76, 125112 (2007).
     *
     *   G. Roman-Perez and J. M. Soler, Phys. Rev. Lett. 103, 096102 (2009).
     *
     *
     * If you are using vdW-DF2, please also cite:
     *
     *   K. Lee, E. D. Murray, L. Kong, B. I. Lundqvist, and
     *   D. C. Langreth, Phys. Rev. B 82, 081101(R) (2010).
     *
     *
     * If you are calculating the stress with vdW-DF, please also cite:
     *
     *   R. Sabatini, E. Kucukbenli, B. Kolb, T. Thonhauser, and
     *   S. de Gironcoli, J. Phys.: Condens. Matter 24, 424209 (2012).
     *
     ************************************************************************

     Carrying out vdW-DF run using the following parameters:

     Nqs =      20    Nr_points =    1024   r_max =   100.000
     q_mesh =
               0.00001000     0.04494208     0.09755937     0.15916263
               0.23128650     0.31572767     0.41458969     0.53033537
               0.66584808     0.82450364     1.01025438     1.22772762
               1.48234092     1.78043706     2.12944203     2.53805004
               3.01644009     3.57652955     4.23227104     5.00000000

     Gradients computed in reciprocal space

     ************************************************************************


     Starting wfc are  654 randomized atomic wfcs

     total cpu time spent up to now is      170.8 secs

     Self-consistent Calculation

     iteration #  1     ecut=    50.00 Ry     beta=0.70
     Davidson diagonalization with overlap
     ethr =  1.00E-02,  avg # of iterations =  3.0

     Threshold (ethr) on eigenvalues was too large:
     Diagonalizing with lowered threshold

     Davidson diagonalization with overlap
     ethr =  4.04E-04,  avg # of iterations =  2.0

     negative rho (up, down):  1.947E+00 0.000E+00

     total cpu time spent up to now is      779.8 secs

     total energy              =   -7423.05855116 Ry
     Harris-Foulkes estimate   =   -7425.97778415 Ry
     estimated scf accuracy    <       3.60952281 Ry

     iteration #  2     ecut=    50.00 Ry     beta=0.70
     Davidson diagonalization with overlap
     ethr =  4.51E-04,  avg # of iterations = 11.3

     negative rho (up, down):  1.943E+00 0.000E+00

     total cpu time spent up to now is     1816.9 secs

     total energy              =   -7415.85450815 Ry
     Harris-Foulkes estimate   =   -7432.15982944 Ry
     estimated scf accuracy    <      83.15450454 Ry

     iteration #  3     ecut=    50.00 Ry     beta=0.70
     Davidson diagonalization with overlap
     ethr =  4.51E-04,  avg # of iterations =  6.0

     negative rho (up, down):  1.953E+00 0.000E+00

     total cpu time spent up to now is     2445.3 secs

     total energy              =   -7424.20719565 Ry
     Harris-Foulkes estimate   =   -7425.79331222 Ry
     estimated scf accuracy    <       6.28682072 Ry

     iteration #  4     ecut=    50.00 Ry     beta=0.70
     Davidson diagonalization with overlap
     ethr =  4.51E-04,  avg # of iterations =  3.0

     negative rho (up, down):  1.958E+00 0.000E+00

     total cpu time spent up to now is     2758.6 secs

     total energy              =   -7424.95048829 Ry
     Harris-Foulkes estimate   =   -7425.49991635 Ry
     estimated scf accuracy    <       2.37584702 Ry

     iteration #  5     ecut=    50.00 Ry     beta=0.70
     Davidson diagonalization with overlap
     ethr =  2.97E-04,  avg # of iterations =  5.3

     negative rho (up, down):  1.963E+00 0.000E+00

     total cpu time spent up to now is     3086.9 secs

     total energy              =   -7424.99810644 Ry
     Harris-Foulkes estimate   =   -7425.48723480 Ry
     estimated scf accuracy    <       3.78128602 Ry

     iteration #  6     ecut=    50.00 Ry     beta=0.70
     Davidson diagonalization with overlap
     ethr =  2.97E-04,  avg # of iterations =  3.7

     negative rho (up, down):  1.966E+00 0.000E+00

     total cpu time spent up to now is     3384.3 secs

     total energy              =   -7425.20490841 Ry
     Harris-Foulkes estimate   =   -7425.27012292 Ry
     estimated scf accuracy    <       0.27674455 Ry

     iteration #  7     ecut=    50.00 Ry     beta=0.70
     Davidson diagonalization with overlap
     ethr =  3.46E-05,  avg # of iterations =  7.7

     negative rho (up, down):  1.969E+00 0.000E+00

     total cpu time spent up to now is     3743.3 secs

     total energy              =   -7425.21554645 Ry
     Harris-Foulkes estimate   =   -7425.25880310 Ry
     estimated scf accuracy    <       0.22734909 Ry

     iteration #  8     ecut=    50.00 Ry     beta=0.70
     Davidson diagonalization with overlap
     ethr =  2.84E-05,  avg # of iterations =  3.7

     negative rho (up, down):  1.971E+00 0.000E+00

     total cpu time spent up to now is     4073.6 secs

     total energy              =   -7425.22417318 Ry
     Harris-Foulkes estimate   =   -7425.24196128 Ry
     estimated scf accuracy    <       0.07215668 Ry

     iteration #  9     ecut=    50.00 Ry     beta=0.70
     Davidson diagonalization with overlap
     ethr =  9.02E-06,  avg # of iterations = 10.7

     negative rho (up, down):  1.972E+00 0.000E+00

     total cpu time spent up to now is     4523.6 secs

     total energy              =   -7425.22651804 Ry
     Harris-Foulkes estimate   =   -7425.23503855 Ry
     estimated scf accuracy    <       0.02808526 Ry

     iteration # 10     ecut=    50.00 Ry     beta=0.70
     Davidson diagonalization with overlap
     c_bands:  2 eigenvalues not converged
     ethr =  3.51E-06,  avg # of iterations = 13.3

     negative rho (up, down):  1.972E+00 0.000E+00

     total cpu time spent up to now is     5032.6 secs

     total energy              =   -7425.22898220 Ry
     Harris-Foulkes estimate   =   -7425.23097784 Ry
     estimated scf accuracy    <       0.00520303 Ry

     iteration # 11     ecut=    50.00 Ry     beta=0.70
     Davidson diagonalization with overlap
     ethr =  6.50E-07,  avg # of iterations =  3.7

     negative rho (up, down):  1.973E+00 0.000E+00

     total cpu time spent up to now is     5378.5 secs

     total energy              =   -7425.22961457 Ry
     Harris-Foulkes estimate   =   -7425.23040542 Ry
     estimated scf accuracy    <       0.00226793 Ry

     iteration # 12     ecut=    50.00 Ry     beta=0.70
     Davidson diagonalization with overlap
     ethr =  2.83E-07,  avg # of iterations =  2.8

     negative rho (up, down):  1.973E+00 0.000E+00

     total cpu time spent up to now is     5703.7 secs

     total energy              =   -7425.22964707 Ry
     Harris-Foulkes estimate   =   -7425.23018312 Ry
     estimated scf accuracy    <       0.00166946 Ry

     iteration # 13     ecut=    50.00 Ry     beta=0.70
     Davidson diagonalization with overlap
     ethr =  2.09E-07,  avg # of iterations =  3.2

     negative rho (up, down):  1.973E+00 0.000E+00

     total cpu time spent up to now is     6053.5 secs

     total energy              =   -7425.22939522 Ry
     Harris-Foulkes estimate   =   -7425.23062654 Ry
     estimated scf accuracy    <       0.00657165 Ry

     iteration # 14     ecut=    50.00 Ry     beta=0.70
     Davidson diagonalization with overlap
     ethr =  2.09E-07,  avg # of iterations =  2.0

     negative rho (up, down):  1.973E+00 0.000E+00

     total cpu time spent up to now is     6407.4 secs

     total energy              =   -7425.22997605 Ry
     Harris-Foulkes estimate   =   -7425.23000429 Ry
     estimated scf accuracy    <       0.00006752 Ry

     iteration # 15     ecut=    50.00 Ry     beta=0.70
     Davidson diagonalization with overlap
     ethr =  8.44E-09,  avg # of iterations =  3.0

     negative rho (up, down):  1.973E+00 0.000E+00

     total cpu time spent up to now is     6845.9 secs

     total energy              =   -7425.22994450 Ry
     Harris-Foulkes estimate   =   -7425.23003957 Ry
     estimated scf accuracy    <       0.00058118 Ry

     iteration # 16     ecut=    50.00 Ry     beta=0.70
     Davidson diagonalization with overlap
     ethr =  8.44E-09,  avg # of iterations =  2.0

     negative rho (up, down):  1.973E+00 0.000E+00

     total cpu time spent up to now is     7176.8 secs

     total energy              =   -7425.22997640 Ry
     Harris-Foulkes estimate   =   -7425.23001786 Ry
     estimated scf accuracy    <       0.00027895 Ry

     iteration # 17     ecut=    50.00 Ry     beta=0.70
     Davidson diagonalization with overlap
     ethr =  8.44E-09,  avg # of iterations =  2.0

     negative rho (up, down):  1.973E+00 0.000E+00

     total cpu time spent up to now is     7481.8 secs

     total energy              =   -7425.22999435 Ry
     Harris-Foulkes estimate   =   -7425.23000190 Ry
     estimated scf accuracy    <       0.00003422 Ry

     iteration # 18     ecut=    50.00 Ry     beta=0.70
     Davidson diagonalization with overlap
     ethr =  4.28E-09,  avg # of iterations =  2.0

     negative rho (up, down):  1.973E+00 0.000E+00

     total cpu time spent up to now is     7777.5 secs

     total energy              =   -7425.22999725 Ry
     Harris-Foulkes estimate   =   -7425.22999945 Ry
     estimated scf accuracy    <       0.00000948 Ry

     iteration # 19     ecut=    50.00 Ry     beta=0.70
     Davidson diagonalization with overlap
     ethr =  1.18E-09,  avg # of iterations =  2.0

     negative rho (up, down):  1.973E+00 0.000E+00

     total cpu time spent up to now is     8086.2 secs

     total energy              =   -7425.22999821 Ry
     Harris-Foulkes estimate   =   -7425.22999873 Ry
     estimated scf accuracy    <       0.00000155 Ry

     iteration # 20     ecut=    50.00 Ry     beta=0.70
     Davidson diagonalization with overlap
     ethr =  1.93E-10,  avg # of iterations =  3.0

     negative rho (up, down):  1.973E+00 0.000E+00

     total cpu time spent up to now is     8403.8 secs

     total energy              =   -7425.22999832 Ry
     Harris-Foulkes estimate   =   -7425.22999866 Ry
     estimated scf accuracy    <       0.00000107 Ry

     iteration # 21     ecut=    50.00 Ry     beta=0.70
     Davidson diagonalization with overlap
     ethr =  1.34E-10,  avg # of iterations =  2.0

     negative rho (up, down):  1.973E+00 0.000E+00

     total cpu time spent up to now is     8699.8 secs

     total energy              =   -7425.22999843 Ry
     Harris-Foulkes estimate   =   -7425.22999855 Ry
     estimated scf accuracy    <       0.00000039 Ry

     iteration # 22     ecut=    50.00 Ry     beta=0.70
     Davidson diagonalization with overlap
     ethr =  4.92E-11,  avg # of iterations =  2.0

     negative rho (up, down):  1.973E+00 0.000E+00

     total cpu time spent up to now is     9001.7 secs

     total energy              =   -7425.22999846 Ry
     Harris-Foulkes estimate   =   -7425.22999851 Ry
     estimated scf accuracy    <       0.00000012 Ry

     iteration # 23     ecut=    50.00 Ry     beta=0.70
     Davidson diagonalization with overlap
     ethr =  1.55E-11,  avg # of iterations =  2.0

     negative rho (up, down):  1.973E+00 0.000E+00

     total cpu time spent up to now is     9298.4 secs

     total energy              =   -7425.22999846 Ry
     Harris-Foulkes estimate   =   -7425.22999850 Ry
     estimated scf accuracy    <       0.00000014 Ry

     iteration # 24     ecut=    50.00 Ry     beta=0.70
     Davidson diagonalization with overlap
     ethr =  1.55E-11,  avg # of iterations =  2.0

     negative rho (up, down):  1.973E+00 0.000E+00

     total cpu time spent up to now is     9592.2 secs

     total energy              =   -7425.22999847 Ry
     Harris-Foulkes estimate   =   -7425.22999848 Ry
     estimated scf accuracy    <       0.00000003 Ry

     iteration # 25     ecut=    50.00 Ry     beta=0.70
     Davidson diagonalization with overlap
     ethr =  3.61E-12,  avg # of iterations =  2.0

     negative rho (up, down):  1.973E+00 0.000E+00

     total cpu time spent up to now is     9909.8 secs

     total energy              =   -7425.22999846 Ry
     Harris-Foulkes estimate   =   -7425.22999848 Ry
     estimated scf accuracy    <       0.00000003 Ry

     iteration # 26     ecut=    50.00 Ry     beta=0.70
     Davidson diagonalization with overlap
     ethr =  3.61E-12,  avg # of iterations =  2.0

     negative rho (up, down):  1.973E+00 0.000E+00

     total cpu time spent up to now is    10221.9 secs

     End of self-consistent calculation

          k = 0.2500 0.2500 0.0833 (167653 PWs)   bands (ev):

   -19.8975  -7.9889  -6.8881  -6.3640  -6.3580  -5.9300  -5.5390  -5.4319
    -5.4263  -5.2386  -5.2324  -5.1604  -5.1129  -5.0378  -5.0181  -4.9416
    -4.8730  -4.8542  -4.8317  -4.8107  -4.7177  -4.6501  -4.6350  -4.6317
    -4.6262  -4.6115  -4.5716  -4.5644  -4.5572  -4.5523  -4.5206  -4.5082
    -4.4889  -4.4674  -4.4633  -4.4323  -4.4275  -4.3784  -4.3772  -4.3708
    -4.3651  -4.3594  -4.3486  -4.3411  -4.3106  -4.2908  -4.2875  -4.2815
    -4.2766  -4.2496  -4.2061  -4.1871  -4.1839  -4.1808  -4.1757  -4.1711
    -4.1693  -4.1660  -4.1519  -4.1020  -4.0990  -4.0530  -4.0518  -4.0382
    -4.0155  -4.0111  -3.9938  -3.9901  -3.9884  -3.9855  -3.9757  -3.9361
    -3.9333  -3.9249  -3.9213  -3.8218  -3.8165  -3.8087  -3.8001  -3.7833
    -3.7706  -3.7461  -3.7228  -3.7161  -3.6902  -3.6887  -3.6741  -3.6696
    -3.6643  -3.6551  -3.6020  -3.5994  -3.5880  -3.5643  -3.5610  -3.5550
    -3.5520  -3.5454  -3.5298  -3.5215  -3.4922  -3.4889  -3.4775  -3.4611
    -3.4396  -3.4289  -3.4253  -3.3907  -3.3872  -3.3563  -3.3500  -3.3145
    -3.3062  -3.3043  -3.2936  -3.2910  -3.2851  -3.2818  -3.2620  -3.2355
    -3.2095  -3.2008  -3.1936  -3.1863  -3.1801  -3.1775  -3.1611  -3.1561
    -3.1421  -3.1375  -3.1304  -3.1077  -3.1048  -3.1004  -3.0977  -3.0903
    -3.0629  -3.0577  -3.0320  -3.0225  -3.0182  -3.0157  -3.0137  -2.9432
    -2.9360  -2.9294  -2.9254  -2.9204  -2.9194  -2.9185  -2.9128  -2.9125
    -2.9108  -2.9032  -2.8956  -2.8934  -2.8790  -2.8741  -2.8720  -2.8621
    -2.8577  -2.8316  -2.8245  -2.8189  -2.8122  -2.8114  -2.7989  -2.7941
    -2.7891  -2.7878  -2.7820  -2.7402  -2.7279  -2.7247  -2.7217  -2.7157
    -2.7096  -2.6885  -2.6549  -2.6340  -2.6289  -2.6210  -2.6151  -2.6123
    -2.6099  -2.5985  -2.5938  -2.5872  -2.5640  -2.5579  -2.5539  -2.5463
    -2.5419  -2.5153  -2.5122  -2.5021  -2.4985  -2.4946  -2.4934  -2.4601
    -2.4511  -2.4256  -2.3867  -2.3780  -2.3677  -2.3617  -2.3588  -2.3503
    -2.3353  -2.3061  -2.3003  -2.2847  -2.2659  -2.2534  -2.2467  -2.2356
    -2.2304  -2.2236  -2.2135  -2.1953  -2.1721  -2.1646  -2.1519  -2.1439
    -2.1412  -2.1379  -2.1359  -2.1226  -2.1197  -2.1178  -2.1143  -2.1078
    -2.1069  -2.1039  -2.0984  -2.0831  -2.0795  -2.0759  -2.0729  -2.0699
    -2.0649  -2.0538  -2.0462  -2.0360  -2.0341  -2.0241  -2.0171  -1.9982
    -1.9781  -1.9533  -1.9420  -1.9207  -1.9076  -1.9019  -1.8896  -1.8827
    -1.8685  -1.8644  -1.8605  -1.8535  -1.8482  -1.8468  -1.8401  -1.8175
    -1.8116  -1.8108  -1.7829  -1.7691  -1.7499  -1.7343  -1.7192  -1.6809
    -1.6770  -1.6646  -1.6486  -1.6382  -1.6311  -1.6241  -1.6170  -1.6060
    -1.6030  -1.5993  -1.5978  -1.5943  -1.5935  -1.5894  -1.5784  -1.5724
    -1.5670  -1.5500  -1.5426  -1.5351  -1.5254  -1.5032  -1.4984  -1.4949
    -1.4931  -1.4874  -1.4808  -1.4730  -1.4529  -1.4503  -1.4381  -1.4360
    -1.4290  -1.4128  -1.4015  -1.3908  -1.3842  -1.3810  -1.3709  -1.3432
    -1.3353  -1.3320  -1.3294  -1.3269  -1.3139  -1.3040  -1.2994  -1.2944
    -1.2818  -1.2778  -1.2758  -1.2677  -1.2670  -1.2573  -1.2530  -1.2436
    -1.2382  -1.2350  -1.2317  -1.2239  -1.2156  -1.2114  -1.2018  -1.1726
    -1.1703  -1.1668  -1.1598  -1.1579  -1.1429  -1.1296  -1.1073  -1.1042
    -1.1024  -1.1015  -1.0984  -1.0936  -1.0899  -1.0790  -1.0665  -1.0456
    -1.0365  -1.0338  -1.0263  -1.0146  -1.0119  -1.0033  -0.9798  -0.9659
    -0.9471  -0.9373  -0.9138  -0.9132  -0.9068  -0.9060  -0.9020  -0.9002
    -0.8966  -0.8961  -0.8906  -0.8855  -0.8606  -0.8594  -0.8414  -0.8406
    -0.8342  -0.8329  -0.8290  -0.8159  -0.7904  -0.5558  -0.5244  -0.4679
    -0.4465  -0.4313  -0.2704  -0.2098  -0.2070  -0.1556   0.1095   0.1231
     0.4436   0.4606   0.5377   0.5416   0.5815   0.5851   0.7303   0.7451
     0.8446   0.8533   0.9555   1.5412   1.5514   1.5546   1.5856   1.6003
     1.6501   1.6642   1.7258   1.7363   1.9285   1.9326   2.1769   2.2481
     2.2559   2.2639   2.6475   2.6583   2.7113   2.7155   2.7231   2.7271
     2.8713   2.8753   2.9403   3.0247   3.0330   3.2529   3.2600   3.3833
     3.4103   3.4147   3.6855   3.6927   3.8042   3.8146   3.8164   3.9071
     3.9197   3.9960   4.0051   4.2314   4.2386   4.3334   4.3370   4.4401
     4.4545   4.4811   4.4984   4.6623   5.2851   5.3119   5.3744   5.3850
     5.3898   5.5578   5.5715   5.6322   5.6753   5.6800   5.6867   5.7236
     5.7297   5.7348   5.7615   5.7787   6.0256   6.0398   6.0615   6.0664
     6.0743   6.0783   6.0903   6.0940   6.1605   6.1759   6.1812   6.1973

          k = 0.2500 0.2500-0.2500 (167588 PWs)   bands (ev):

   -19.8975  -7.9889  -6.8881  -6.3640  -6.3580  -5.9300  -5.5390  -5.4319
    -5.4263  -5.2386  -5.2324  -5.1604  -5.1129  -5.0378  -5.0181  -4.9416
    -4.8730  -4.8542  -4.8317  -4.8107  -4.7177  -4.6501  -4.6350  -4.6317
    -4.6262  -4.6115  -4.5716  -4.5644  -4.5572  -4.5523  -4.5206  -4.5082
    -4.4889  -4.4674  -4.4633  -4.4323  -4.4275  -4.3784  -4.3772  -4.3708
    -4.3651  -4.3594  -4.3486  -4.3411  -4.3106  -4.2908  -4.2875  -4.2815
    -4.2766  -4.2496  -4.2061  -4.1871  -4.1839  -4.1808  -4.1757  -4.1711
    -4.1693  -4.1660  -4.1519  -4.1020  -4.0990  -4.0530  -4.0518  -4.0382
    -4.0155  -4.0111  -3.9938  -3.9901  -3.9884  -3.9855  -3.9757  -3.9361
    -3.9333  -3.9249  -3.9213  -3.8218  -3.8165  -3.8087  -3.8001  -3.7833
    -3.7706  -3.7461  -3.7228  -3.7161  -3.6902  -3.6887  -3.6741  -3.6696
    -3.6643  -3.6551  -3.6020  -3.5994  -3.5880  -3.5643  -3.5610  -3.5550
    -3.5520  -3.5454  -3.5298  -3.5215  -3.4922  -3.4889  -3.4775  -3.4611
    -3.4396  -3.4289  -3.4253  -3.3907  -3.3872  -3.3563  -3.3500  -3.3145
    -3.3062  -3.3043  -3.2936  -3.2910  -3.2851  -3.2818  -3.2620  -3.2355
    -3.2095  -3.2008  -3.1936  -3.1863  -3.1801  -3.1775  -3.1611  -3.1561
    -3.1421  -3.1375  -3.1304  -3.1077  -3.1048  -3.1004  -3.0976  -3.0903
    -3.0629  -3.0577  -3.0320  -3.0225  -3.0182  -3.0157  -3.0137  -2.9432
    -2.9360  -2.9294  -2.9254  -2.9204  -2.9194  -2.9185  -2.9128  -2.9125
    -2.9108  -2.9032  -2.8956  -2.8934  -2.8790  -2.8741  -2.8720  -2.8621
    -2.8576  -2.8316  -2.8245  -2.8189  -2.8122  -2.8114  -2.7989  -2.7940
    -2.7891  -2.7878  -2.7820  -2.7402  -2.7279  -2.7247  -2.7217  -2.7157
    -2.7096  -2.6885  -2.6549  -2.6340  -2.6289  -2.6210  -2.6151  -2.6123
    -2.6099  -2.5985  -2.5938  -2.5872  -2.5640  -2.5579  -2.5539  -2.5463
    -2.5419  -2.5153  -2.5122  -2.5021  -2.4985  -2.4946  -2.4934  -2.4601
    -2.4511  -2.4256  -2.3867  -2.3780  -2.3677  -2.3617  -2.3588  -2.3503
    -2.3353  -2.3061  -2.3003  -2.2847  -2.2659  -2.2534  -2.2467  -2.2356
    -2.2304  -2.2236  -2.2135  -2.1953  -2.1721  -2.1646  -2.1519  -2.1439
    -2.1412  -2.1379  -2.1359  -2.1226  -2.1197  -2.1178  -2.1143  -2.1078
    -2.1069  -2.1039  -2.0984  -2.0831  -2.0795  -2.0759  -2.0729  -2.0699
    -2.0649  -2.0538  -2.0462  -2.0360  -2.0341  -2.0241  -2.0171  -1.9982
    -1.9781  -1.9533  -1.9420  -1.9207  -1.9076  -1.9019  -1.8896  -1.8827
    -1.8685  -1.8644  -1.8605  -1.8535  -1.8482  -1.8468  -1.8401  -1.8175
    -1.8116  -1.8109  -1.7829  -1.7691  -1.7499  -1.7343  -1.7192  -1.6809
    -1.6770  -1.6646  -1.6486  -1.6382  -1.6311  -1.6241  -1.6170  -1.6060
    -1.6030  -1.5993  -1.5978  -1.5943  -1.5935  -1.5894  -1.5784  -1.5724
    -1.5670  -1.5500  -1.5426  -1.5351  -1.5254  -1.5032  -1.4984  -1.4949
    -1.4931  -1.4874  -1.4808  -1.4729  -1.4529  -1.4503  -1.4381  -1.4360
    -1.4290  -1.4128  -1.4015  -1.3908  -1.3842  -1.3810  -1.3709  -1.3432
    -1.3353  -1.3320  -1.3294  -1.3269  -1.3139  -1.3040  -1.2994  -1.2944
    -1.2818  -1.2778  -1.2758  -1.2677  -1.2670  -1.2573  -1.2530  -1.2437
    -1.2382  -1.2349  -1.2317  -1.2239  -1.2156  -1.2114  -1.2018  -1.1726
    -1.1703  -1.1668  -1.1598  -1.1579  -1.1429  -1.1296  -1.1073  -1.1042
    -1.1024  -1.1015  -1.0984  -1.0936  -1.0899  -1.0790  -1.0665  -1.0456
    -1.0365  -1.0338  -1.0263  -1.0146  -1.0119  -1.0033  -0.9798  -0.9659
    -0.9471  -0.9373  -0.9138  -0.9132  -0.9068  -0.9060  -0.9020  -0.9002
    -0.8966  -0.8961  -0.8906  -0.8855  -0.8606  -0.8594  -0.8414  -0.8406
    -0.8342  -0.8329  -0.8290  -0.8159  -0.7904  -0.5558  -0.5244  -0.4679
    -0.4465  -0.4313  -0.2704  -0.2098  -0.2070  -0.1556   0.1095   0.1231
     0.4436   0.4606   0.5378   0.5416   0.5815   0.5851   0.7303   0.7452
     0.8446   0.8533   0.9555   1.5412   1.5514   1.5546   1.5856   1.6003
     1.6502   1.6643   1.7258   1.7363   1.9285   1.9326   2.1769   2.2481
     2.2559   2.2639   2.6475   2.6583   2.7113   2.7155   2.7231   2.7271
     2.8713   2.8753   2.9403   3.0247   3.0330   3.2529   3.2600   3.3833
     3.4103   3.4147   3.6855   3.6927   3.8042   3.8146   3.8164   3.9071
     3.9198   3.9960   4.0051   4.2314   4.2386   4.3334   4.3370   4.4401
     4.4545   4.4811   4.4984   4.6624   5.2849   5.3117   5.3581   5.3771
     5.3883   5.5576   5.5714   5.6312   5.6779   5.6854   5.7099   5.7232
     5.7304   5.7419   5.7770   5.7908   6.0254   6.0395   6.0616   6.0667
     6.0745   6.0783   6.0903   6.0931   6.1426   6.1653   6.1930   6.2886

          k =-0.2500-0.2500 0.0833 (167653 PWs)   bands (ev):

   -19.8975  -7.9889  -6.8881  -6.3640  -6.3580  -5.9300  -5.5390  -5.4319
    -5.4263  -5.2386  -5.2324  -5.1604  -5.1129  -5.0378  -5.0181  -4.9416
    -4.8730  -4.8542  -4.8317  -4.8107  -4.7177  -4.6501  -4.6350  -4.6317
    -4.6262  -4.6115  -4.5716  -4.5644  -4.5572  -4.5523  -4.5206  -4.5082
    -4.4889  -4.4674  -4.4633  -4.4323  -4.4275  -4.3784  -4.3772  -4.3708
    -4.3651  -4.3594  -4.3486  -4.3411  -4.3106  -4.2908  -4.2875  -4.2815
    -4.2766  -4.2496  -4.2061  -4.1871  -4.1839  -4.1808  -4.1757  -4.1711
    -4.1693  -4.1660  -4.1519  -4.1020  -4.0990  -4.0530  -4.0518  -4.0382
    -4.0155  -4.0111  -3.9938  -3.9901  -3.9884  -3.9855  -3.9757  -3.9361
    -3.9333  -3.9249  -3.9213  -3.8218  -3.8165  -3.8087  -3.8001  -3.7833
    -3.7706  -3.7461  -3.7228  -3.7161  -3.6902  -3.6887  -3.6741  -3.6696
    -3.6643  -3.6551  -3.6020  -3.5994  -3.5880  -3.5643  -3.5610  -3.5550
    -3.5520  -3.5454  -3.5298  -3.5215  -3.4922  -3.4889  -3.4775  -3.4611
    -3.4396  -3.4289  -3.4253  -3.3907  -3.3872  -3.3563  -3.3500  -3.3145
    -3.3062  -3.3043  -3.2936  -3.2910  -3.2851  -3.2818  -3.2620  -3.2355
    -3.2095  -3.2008  -3.1936  -3.1863  -3.1801  -3.1775  -3.1611  -3.1561
    -3.1421  -3.1375  -3.1304  -3.1077  -3.1048  -3.1004  -3.0977  -3.0903
    -3.0629  -3.0577  -3.0320  -3.0225  -3.0182  -3.0157  -3.0137  -2.9432
    -2.9360  -2.9294  -2.9254  -2.9204  -2.9194  -2.9185  -2.9128  -2.9125
    -2.9108  -2.9032  -2.8956  -2.8934  -2.8790  -2.8741  -2.8720  -2.8621
    -2.8577  -2.8316  -2.8245  -2.8189  -2.8122  -2.8114  -2.7989  -2.7941
    -2.7891  -2.7878  -2.7820  -2.7402  -2.7279  -2.7247  -2.7217  -2.7157
    -2.7096  -2.6885  -2.6549  -2.6340  -2.6289  -2.6210  -2.6151  -2.6123
    -2.6099  -2.5985  -2.5938  -2.5872  -2.5640  -2.5579  -2.5539  -2.5463
    -2.5419  -2.5153  -2.5122  -2.5021  -2.4985  -2.4946  -2.4934  -2.4601
    -2.4511  -2.4256  -2.3867  -2.3780  -2.3677  -2.3617  -2.3588  -2.3503
    -2.3353  -2.3061  -2.3003  -2.2847  -2.2659  -2.2534  -2.2467  -2.2356
    -2.2304  -2.2236  -2.2135  -2.1953  -2.1721  -2.1646  -2.1519  -2.1439
    -2.1412  -2.1379  -2.1359  -2.1226  -2.1197  -2.1178  -2.1143  -2.1078
    -2.1069  -2.1039  -2.0984  -2.0831  -2.0795  -2.0759  -2.0729  -2.0699
    -2.0649  -2.0538  -2.0462  -2.0360  -2.0341  -2.0241  -2.0171  -1.9982
    -1.9781  -1.9533  -1.9420  -1.9207  -1.9076  -1.9019  -1.8896  -1.8827
    -1.8685  -1.8644  -1.8605  -1.8535  -1.8482  -1.8468  -1.8401  -1.8175
    -1.8116  -1.8108  -1.7829  -1.7691  -1.7499  -1.7343  -1.7192  -1.6809
    -1.6770  -1.6646  -1.6486  -1.6382  -1.6311  -1.6241  -1.6170  -1.6060
    -1.6030  -1.5993  -1.5978  -1.5943  -1.5935  -1.5894  -1.5784  -1.5724
    -1.5670  -1.5500  -1.5426  -1.5351  -1.5254  -1.5032  -1.4984  -1.4949
    -1.4931  -1.4874  -1.4808  -1.4730  -1.4529  -1.4503  -1.4381  -1.4360
    -1.4290  -1.4128  -1.4015  -1.3908  -1.3842  -1.3810  -1.3709  -1.3432
    -1.3353  -1.3320  -1.3294  -1.3269  -1.3139  -1.3040  -1.2994  -1.2944
    -1.2818  -1.2778  -1.2758  -1.2677  -1.2670  -1.2573  -1.2530  -1.2436
    -1.2382  -1.2350  -1.2317  -1.2239  -1.2156  -1.2114  -1.2018  -1.1726
    -1.1703  -1.1668  -1.1598  -1.1579  -1.1429  -1.1296  -1.1073  -1.1042
    -1.1024  -1.1015  -1.0984  -1.0936  -1.0899  -1.0790  -1.0666  -1.0456
    -1.0365  -1.0338  -1.0263  -1.0146  -1.0119  -1.0033  -0.9798  -0.9659
    -0.9471  -0.9373  -0.9138  -0.9132  -0.9068  -0.9060  -0.9020  -0.9002
    -0.8966  -0.8961  -0.8906  -0.8855  -0.8606  -0.8594  -0.8414  -0.8406
    -0.8342  -0.8329  -0.8290  -0.8159  -0.7904  -0.5558  -0.5244  -0.4679
    -0.4465  -0.4313  -0.2704  -0.2098  -0.2070  -0.1556   0.1095   0.1231
     0.4436   0.4606   0.5377   0.5416   0.5815   0.5851   0.7303   0.7451
     0.8446   0.8533   0.9555   1.5412   1.5514   1.5546   1.5856   1.6003
     1.6501   1.6642   1.7258   1.7363   1.9285   1.9326   2.1769   2.2481
     2.2559   2.2639   2.6475   2.6583   2.7113   2.7155   2.7231   2.7271
     2.8713   2.8753   2.9403   3.0247   3.0330   3.2529   3.2600   3.3833
     3.4103   3.4147   3.6855   3.6927   3.8042   3.8146   3.8164   3.9071
     3.9197   3.9960   4.0051   4.2314   4.2386   4.3334   4.3370   4.4401
     4.4545   4.4811   4.4984   4.6623   5.2852   5.3119   5.3744   5.3852
     5.3895   5.5578   5.5714   5.6321   5.6752   5.6810   5.6862   5.7234
     5.7300   5.7347   5.7614   5.7787   6.0255   6.0396   6.0615   6.0665
     6.0742   6.0782   6.0903   6.0941   6.1602   6.1760   6.1797   6.1988

          k =-0.2500 0.2500-0.0833 (167653 PWs)   bands (ev):

   -19.8975  -7.9889  -6.8885  -6.3629  -6.3571  -5.9323  -5.5401  -5.4344
    -5.4263  -5.2334  -5.2310  -5.1579  -5.1124  -5.0364  -5.0246  -4.9460
    -4.8667  -4.8513  -4.8224  -4.8107  -4.7306  -4.6474  -4.6349  -4.6323
    -4.6274  -4.6180  -4.5717  -4.5667  -4.5571  -4.5521  -4.5216  -4.5080
    -4.4859  -4.4673  -4.4619  -4.4331  -4.4261  -4.3822  -4.3776  -4.3705
    -4.3659  -4.3574  -4.3488  -4.3408  -4.3052  -4.2901  -4.2867  -4.2818
    -4.2783  -4.2444  -4.2036  -4.1869  -4.1848  -4.1837  -4.1785  -4.1721
    -4.1699  -4.1662  -4.1503  -4.1088  -4.1002  -4.0520  -4.0462  -4.0379
    -4.0195  -4.0094  -3.9977  -3.9908  -3.9887  -3.9855  -3.9713  -3.9351
    -3.9318  -3.9227  -3.9210  -3.8208  -3.8158  -3.8094  -3.8054  -3.7846
    -3.7704  -3.7462  -3.7217  -3.7175  -3.6904  -3.6887  -3.6756  -3.6702
    -3.6636  -3.6548  -3.6019  -3.5995  -3.5791  -3.5646  -3.5606  -3.5545
    -3.5520  -3.5439  -3.5305  -3.5241  -3.4913  -3.4880  -3.4759  -3.4656
    -3.4374  -3.4309  -3.4258  -3.3895  -3.3842  -3.3551  -3.3499  -3.3164
    -3.3061  -3.3044  -3.2939  -3.2920  -3.2854  -3.2843  -3.2618  -3.2364
    -3.2108  -3.1997  -3.1935  -3.1868  -3.1803  -3.1779  -3.1589  -3.1559
    -3.1433  -3.1379  -3.1308  -3.1090  -3.1048  -3.0993  -3.0971  -3.0915
    -3.0654  -3.0573  -3.0280  -3.0224  -3.0183  -3.0156  -3.0136  -2.9444
    -2.9358  -2.9288  -2.9258  -2.9208  -2.9198  -2.9178  -2.9128  -2.9115
    -2.9107  -2.9031  -2.8955  -2.8922  -2.8781  -2.8742  -2.8710  -2.8627
    -2.8538  -2.8320  -2.8256  -2.8191  -2.8135  -2.8119  -2.7976  -2.7940
    -2.7888  -2.7865  -2.7819  -2.7417  -2.7281  -2.7242  -2.7210  -2.7157
    -2.7070  -2.6909  -2.6593  -2.6328  -2.6284  -2.6207  -2.6136  -2.6119
    -2.6103  -2.5982  -2.5929  -2.5850  -2.5621  -2.5578  -2.5529  -2.5469
    -2.5433  -2.5146  -2.5122  -2.5025  -2.4989  -2.4954  -2.4942  -2.4618
    -2.4486  -2.4289  -2.3865  -2.3778  -2.3692  -2.3635  -2.3581  -2.3508
    -2.3362  -2.3074  -2.3026  -2.2847  -2.2621  -2.2574  -2.2467  -2.2349
    -2.2310  -2.2230  -2.2125  -2.1966  -2.1765  -2.1663  -2.1530  -2.1446
    -2.1411  -2.1381  -2.1356  -2.1221  -2.1203  -2.1176  -2.1140  -2.1085
    -2.1067  -2.1034  -2.1000  -2.0832  -2.0808  -2.0766  -2.0727  -2.0696
    -2.0647  -2.0548  -2.0478  -2.0380  -2.0340  -2.0251  -2.0193  -1.9977
    -1.9768  -1.9541  -1.9373  -1.9208  -1.9051  -1.9020  -1.8888  -1.8812
    -1.8679  -1.8643  -1.8604  -1.8521  -1.8483  -1.8459  -1.8396  -1.8163
    -1.8112  -1.8082  -1.7863  -1.7693  -1.7468  -1.7352  -1.7192  -1.6815
    -1.6783  -1.6661  -1.6478  -1.6379  -1.6345  -1.6241  -1.6149  -1.6080
    -1.6029  -1.5993  -1.5971  -1.5947  -1.5932  -1.5894  -1.5774  -1.5682
    -1.5640  -1.5509  -1.5441  -1.5316  -1.5224  -1.5047  -1.4989  -1.4941
    -1.4929  -1.4867  -1.4790  -1.4725  -1.4533  -1.4489  -1.4396  -1.4360
    -1.4293  -1.4126  -1.4061  -1.3880  -1.3840  -1.3800  -1.3718  -1.3454
    -1.3346  -1.3305  -1.3289  -1.3267  -1.3152  -1.3053  -1.2991  -1.2944
    -1.2812  -1.2776  -1.2758  -1.2675  -1.2671  -1.2582  -1.2533  -1.2440
    -1.2387  -1.2348  -1.2324  -1.2242  -1.2159  -1.2099  -1.2026  -1.1725
    -1.1696  -1.1669  -1.1594  -1.1569  -1.1450  -1.1292  -1.1081  -1.1038
    -1.1028  -1.1003  -1.0982  -1.0933  -1.0868  -1.0787  -1.0667  -1.0463
    -1.0366  -1.0338  -1.0246  -1.0149  -1.0138  -1.0029  -0.9781  -0.9653
    -0.9474  -0.9373  -0.9152  -0.9128  -0.9066  -0.9057  -0.9021  -0.8996
    -0.8967  -0.8961  -0.8906  -0.8863  -0.8607  -0.8596  -0.8410  -0.8404
    -0.8340  -0.8331  -0.8279  -0.8160  -0.7910  -0.5563  -0.5243  -0.4680
    -0.4452  -0.4325  -0.2740  -0.2122  -0.2071  -0.1563   0.1116   0.1230
     0.4426   0.4612   0.5348   0.5426   0.5793   0.5826   0.7310   0.7457
     0.8452   0.8541   0.9559   1.5399   1.5508   1.5576   1.5918   1.6005
     1.6462   1.6674   1.7254   1.7383   1.9254   1.9339   2.1780   2.2467
     2.2549   2.2638   2.6438   2.6615   2.7117   2.7188   2.7214   2.7271
     2.8690   2.8771   2.9390   3.0210   3.0360   3.2538   3.2579   3.3818
     3.4081   3.4185   3.6818   3.6934   3.8095   3.8136   3.8182   3.8998
     3.9247   3.9895   4.0047   4.2236   4.2432   4.3352   4.3378   4.4472
     4.4545   4.4786   4.5036   4.6634   5.2810   5.3121   5.3790   5.3825
     5.3936   5.5541   5.5676   5.6335   5.6751   5.6833   5.6881   5.7067
     5.7273   5.7409   5.7555   5.7806   6.0301   6.0509   6.0598   6.0684
     6.0772   6.0831   6.0880   6.0915   6.1613   6.1777   6.1789   6.1962

          k = 0.2500-0.2500-0.0833 (167653 PWs)   bands (ev):

   -19.8975  -7.9889  -6.8885  -6.3629  -6.3571  -5.9323  -5.5401  -5.4344
    -5.4263  -5.2334  -5.2310  -5.1579  -5.1124  -5.0364  -5.0246  -4.9460
    -4.8667  -4.8513  -4.8224  -4.8107  -4.7306  -4.6474  -4.6349  -4.6323
    -4.6274  -4.6180  -4.5717  -4.5667  -4.5571  -4.5521  -4.5216  -4.5080
    -4.4859  -4.4673  -4.4619  -4.4331  -4.4260  -4.3822  -4.3776  -4.3705
    -4.3659  -4.3574  -4.3488  -4.3408  -4.3052  -4.2901  -4.2867  -4.2818
    -4.2783  -4.2444  -4.2036  -4.1869  -4.1848  -4.1837  -4.1785  -4.1721
    -4.1699  -4.1662  -4.1503  -4.1088  -4.1002  -4.0520  -4.0462  -4.0379
    -4.0195  -4.0094  -3.9977  -3.9908  -3.9887  -3.9855  -3.9713  -3.9351
    -3.9318  -3.9227  -3.9210  -3.8208  -3.8158  -3.8094  -3.8054  -3.7846
    -3.7704  -3.7462  -3.7217  -3.7175  -3.6904  -3.6887  -3.6756  -3.6702
    -3.6636  -3.6548  -3.6019  -3.5995  -3.5791  -3.5646  -3.5606  -3.5545
    -3.5520  -3.5439  -3.5305  -3.5241  -3.4913  -3.4880  -3.4759  -3.4656
    -3.4374  -3.4309  -3.4258  -3.3895  -3.3842  -3.3551  -3.3499  -3.3164
    -3.3061  -3.3044  -3.2939  -3.2920  -3.2854  -3.2843  -3.2618  -3.2364
    -3.2108  -3.1997  -3.1935  -3.1868  -3.1803  -3.1779  -3.1589  -3.1559
    -3.1433  -3.1379  -3.1308  -3.1090  -3.1048  -3.0993  -3.0971  -3.0915
    -3.0654  -3.0573  -3.0280  -3.0224  -3.0183  -3.0156  -3.0136  -2.9444
    -2.9358  -2.9288  -2.9258  -2.9208  -2.9198  -2.9178  -2.9128  -2.9115
    -2.9107  -2.9031  -2.8955  -2.8922  -2.8781  -2.8742  -2.8710  -2.8627
    -2.8538  -2.8320  -2.8256  -2.8191  -2.8135  -2.8119  -2.7976  -2.7940
    -2.7888  -2.7865  -2.7819  -2.7417  -2.7281  -2.7242  -2.7210  -2.7157
    -2.7070  -2.6909  -2.6593  -2.6328  -2.6284  -2.6207  -2.6136  -2.6119
    -2.6103  -2.5982  -2.5929  -2.5850  -2.5621  -2.5578  -2.5529  -2.5469
    -2.5433  -2.5146  -2.5122  -2.5025  -2.4989  -2.4954  -2.4942  -2.4618
    -2.4486  -2.4289  -2.3865  -2.3778  -2.3692  -2.3635  -2.3581  -2.3508
    -2.3362  -2.3074  -2.3026  -2.2847  -2.2621  -2.2574  -2.2467  -2.2349
    -2.2310  -2.2230  -2.2125  -2.1966  -2.1765  -2.1663  -2.1530  -2.1446
    -2.1411  -2.1381  -2.1356  -2.1221  -2.1203  -2.1176  -2.1140  -2.1085
    -2.1067  -2.1034  -2.1000  -2.0832  -2.0808  -2.0766  -2.0727  -2.0696
    -2.0647  -2.0548  -2.0478  -2.0380  -2.0340  -2.0251  -2.0193  -1.9977
    -1.9768  -1.9541  -1.9373  -1.9208  -1.9051  -1.9020  -1.8888  -1.8812
    -1.8679  -1.8643  -1.8604  -1.8521  -1.8483  -1.8459  -1.8396  -1.8163
    -1.8112  -1.8082  -1.7863  -1.7693  -1.7468  -1.7352  -1.7192  -1.6815
    -1.6783  -1.6661  -1.6478  -1.6379  -1.6345  -1.6241  -1.6149  -1.6080
    -1.6029  -1.5993  -1.5971  -1.5947  -1.5932  -1.5894  -1.5774  -1.5682
    -1.5640  -1.5509  -1.5441  -1.5316  -1.5224  -1.5047  -1.4989  -1.4941
    -1.4929  -1.4867  -1.4790  -1.4725  -1.4533  -1.4489  -1.4396  -1.4360
    -1.4293  -1.4126  -1.4061  -1.3880  -1.3840  -1.3800  -1.3718  -1.3454
    -1.3346  -1.3305  -1.3289  -1.3267  -1.3152  -1.3053  -1.2991  -1.2944
    -1.2812  -1.2776  -1.2758  -1.2675  -1.2671  -1.2582  -1.2533  -1.2440
    -1.2387  -1.2348  -1.2324  -1.2242  -1.2159  -1.2099  -1.2026  -1.1725
    -1.1696  -1.1669  -1.1594  -1.1569  -1.1450  -1.1292  -1.1081  -1.1038
    -1.1028  -1.1003  -1.0982  -1.0933  -1.0868  -1.0787  -1.0667  -1.0463
    -1.0366  -1.0338  -1.0246  -1.0149  -1.0138  -1.0029  -0.9781  -0.9653
    -0.9474  -0.9373  -0.9152  -0.9128  -0.9066  -0.9057  -0.9021  -0.8996
    -0.8967  -0.8961  -0.8906  -0.8863  -0.8607  -0.8596  -0.8410  -0.8404
    -0.8340  -0.8331  -0.8279  -0.8160  -0.7910  -0.5563  -0.5243  -0.4680
    -0.4452  -0.4325  -0.2740  -0.2122  -0.2071  -0.1563   0.1116   0.1230
     0.4426   0.4612   0.5348   0.5426   0.5793   0.5826   0.7310   0.7457
     0.8452   0.8541   0.9559   1.5399   1.5508   1.5576   1.5918   1.6005
     1.6462   1.6674   1.7254   1.7383   1.9254   1.9339   2.1780   2.2467
     2.2549   2.2638   2.6438   2.6615   2.7117   2.7188   2.7214   2.7271
     2.8690   2.8771   2.9390   3.0210   3.0360   3.2538   3.2579   3.3818
     3.4081   3.4185   3.6818   3.6934   3.8095   3.8136   3.8182   3.8998
     3.9247   3.9895   4.0047   4.2236   4.2432   4.3352   4.3378   4.4472
     4.4545   4.4786   4.5036   4.6634   5.2810   5.3121   5.3788   5.3826
     5.3937   5.5541   5.5677   5.6336   5.6748   5.6830   5.6886   5.7065
     5.7273   5.7412   5.7554   5.7808   6.0301   6.0509   6.0597   6.0684
     6.0772   6.0832   6.0881   6.0916   6.1622   6.1763   6.1795   6.1955

          k =-0.2500 0.2500 0.2500 (167588 PWs)   bands (ev):

   -19.8975  -7.9889  -6.8885  -6.3629  -6.3571  -5.9323  -5.5401  -5.4344
    -5.4263  -5.2334  -5.2310  -5.1579  -5.1124  -5.0364  -5.0246  -4.9460
    -4.8667  -4.8513  -4.8224  -4.8107  -4.7306  -4.6474  -4.6349  -4.6323
    -4.6274  -4.6180  -4.5717  -4.5667  -4.5571  -4.5521  -4.5216  -4.5080
    -4.4859  -4.4673  -4.4619  -4.4331  -4.4261  -4.3822  -4.3776  -4.3705
    -4.3659  -4.3574  -4.3488  -4.3408  -4.3052  -4.2901  -4.2867  -4.2818
    -4.2783  -4.2444  -4.2036  -4.1869  -4.1848  -4.1837  -4.1785  -4.1721
    -4.1699  -4.1662  -4.1503  -4.1088  -4.1001  -4.0520  -4.0462  -4.0379
    -4.0195  -4.0094  -3.9977  -3.9908  -3.9887  -3.9855  -3.9713  -3.9351
    -3.9318  -3.9227  -3.9210  -3.8208  -3.8158  -3.8094  -3.8054  -3.7846
    -3.7704  -3.7462  -3.7217  -3.7175  -3.6904  -3.6887  -3.6756  -3.6702
    -3.6636  -3.6548  -3.6019  -3.5995  -3.5791  -3.5647  -3.5606  -3.5545
    -3.5520  -3.5439  -3.5305  -3.5241  -3.4913  -3.4880  -3.4759  -3.4656
    -3.4374  -3.4309  -3.4258  -3.3895  -3.3842  -3.3551  -3.3499  -3.3164
    -3.3061  -3.3044  -3.2939  -3.2920  -3.2854  -3.2843  -3.2618  -3.2365
    -3.2108  -3.1997  -3.1935  -3.1868  -3.1803  -3.1779  -3.1589  -3.1559
    -3.1433  -3.1379  -3.1308  -3.1090  -3.1048  -3.0993  -3.0971  -3.0915
    -3.0654  -3.0573  -3.0280  -3.0224  -3.0183  -3.0156  -3.0136  -2.9444
    -2.9358  -2.9288  -2.9258  -2.9208  -2.9198  -2.9178  -2.9128  -2.9115
    -2.9107  -2.9031  -2.8955  -2.8922  -2.8781  -2.8742  -2.8710  -2.8627
    -2.8537  -2.8319  -2.8256  -2.8191  -2.8135  -2.8119  -2.7976  -2.7940
    -2.7888  -2.7865  -2.7819  -2.7417  -2.7281  -2.7242  -2.7210  -2.7157
    -2.7070  -2.6909  -2.6593  -2.6328  -2.6284  -2.6207  -2.6136  -2.6119
    -2.6103  -2.5982  -2.5929  -2.5850  -2.5621  -2.5578  -2.5529  -2.5469
    -2.5433  -2.5146  -2.5122  -2.5025  -2.4989  -2.4954  -2.4942  -2.4618
    -2.4486  -2.4289  -2.3865  -2.3778  -2.3692  -2.3635  -2.3581  -2.3508
    -2.3362  -2.3074  -2.3026  -2.2847  -2.2621  -2.2574  -2.2467  -2.2349
    -2.2309  -2.2230  -2.2125  -2.1966  -2.1765  -2.1663  -2.1530  -2.1446
    -2.1411  -2.1381  -2.1356  -2.1221  -2.1203  -2.1176  -2.1140  -2.1085
    -2.1067  -2.1034  -2.1000  -2.0832  -2.0808  -2.0766  -2.0727  -2.0696
    -2.0647  -2.0548  -2.0478  -2.0380  -2.0340  -2.0251  -2.0193  -1.9977
    -1.9768  -1.9541  -1.9373  -1.9208  -1.9051  -1.9020  -1.8888  -1.8812
    -1.8679  -1.8643  -1.8604  -1.8521  -1.8483  -1.8459  -1.8396  -1.8163
    -1.8112  -1.8082  -1.7863  -1.7693  -1.7468  -1.7352  -1.7192  -1.6815
    -1.6783  -1.6661  -1.6478  -1.6379  -1.6345  -1.6241  -1.6149  -1.6080
    -1.6029  -1.5993  -1.5971  -1.5947  -1.5932  -1.5894  -1.5774  -1.5682
    -1.5640  -1.5509  -1.5441  -1.5316  -1.5224  -1.5047  -1.4989  -1.4941
    -1.4929  -1.4867  -1.4790  -1.4725  -1.4533  -1.4489  -1.4396  -1.4360
    -1.4293  -1.4126  -1.4061  -1.3880  -1.3840  -1.3800  -1.3717  -1.3454
    -1.3346  -1.3305  -1.3289  -1.3267  -1.3152  -1.3053  -1.2991  -1.2944
    -1.2812  -1.2776  -1.2758  -1.2675  -1.2671  -1.2582  -1.2533  -1.2440
    -1.2387  -1.2348  -1.2324  -1.2242  -1.2159  -1.2099  -1.2026  -1.1725
    -1.1696  -1.1669  -1.1594  -1.1569  -1.1450  -1.1291  -1.1081  -1.1038
    -1.1028  -1.1002  -1.0982  -1.0933  -1.0868  -1.0787  -1.0667  -1.0463
    -1.0366  -1.0338  -1.0246  -1.0149  -1.0138  -1.0029  -0.9781  -0.9653
    -0.9473  -0.9373  -0.9152  -0.9128  -0.9066  -0.9057  -0.9021  -0.8996
    -0.8966  -0.8961  -0.8906  -0.8863  -0.8607  -0.8596  -0.8410  -0.8404
    -0.8340  -0.8331  -0.8279  -0.8160  -0.7910  -0.5563  -0.5243  -0.4680
    -0.4452  -0.4325  -0.2740  -0.2122  -0.2071  -0.1563   0.1116   0.1230
     0.4426   0.4612   0.5348   0.5426   0.5793   0.5826   0.7310   0.7457
     0.8452   0.8541   0.9559   1.5399   1.5508   1.5576   1.5918   1.6005
     1.6462   1.6675   1.7254   1.7383   1.9254   1.9339   2.1780   2.2467
     2.2549   2.2638   2.6438   2.6615   2.7117   2.7188   2.7214   2.7271
     2.8690   2.8771   2.9391   3.0210   3.0360   3.2538   3.2579   3.3818
     3.4081   3.4185   3.6818   3.6934   3.8095   3.8136   3.8182   3.8999
     3.9247   3.9895   4.0047   4.2236   4.2432   4.3352   4.3378   4.4472
     4.4545   4.4786   4.5036   4.6635   5.2806   5.3119   5.3581   5.3813
     5.3901   5.5539   5.5676   5.6328   5.6798   5.6870   5.7024   5.7151
     5.7307   5.7395   5.7778   5.7910   6.0297   6.0511   6.0599   6.0686
     6.0772   6.0828   6.0882   6.0914   6.1421   6.1688   6.1896   6.2888

     the Fermi energy is     0.8049 ev

!    total energy              =   -7425.22999845 Ry
     Harris-Foulkes estimate   =   -7425.22999847 Ry
     estimated scf accuracy    <          6.1E-09 Ry

     The total energy is the sum of the following terms:

     one-electron contribution =  -48987.89705586 Ry
     hartree contribution      =   25042.73523173 Ry
     xc contribution           =   -3604.34908575 Ry
     ewald contribution        =   20124.28300604 Ry
     smearing contrib. (-TS)   =      -0.00209461 Ry

     convergence has been achieved in  26 iterations

     Writing output data file 8796361.save

     init_run     :    161.74s CPU    169.85s WALL (       1 calls)
     electrons    :   9499.43s CPU  10051.66s WALL (       1 calls)

     Called by init_run:
     wfcinit      :    128.55s CPU    135.90s WALL (       1 calls)
     potinit      :     10.71s CPU     11.11s WALL (       1 calls)

     Called by electrons:
     c_bands      :   7873.75s CPU   8332.65s WALL (      27 calls)
     sum_band     :   1086.64s CPU   1149.89s WALL (      27 calls)
     v_of_rho     :    163.80s CPU    188.46s WALL (      27 calls)
     newd         :    382.56s CPU    387.47s WALL (      27 calls)
     mix_rho      :      5.10s CPU      5.58s WALL (      27 calls)
     vdW_energy   :      8.03s CPU     12.33s WALL (      27 calls)
     vdW_ffts     :     97.36s CPU    105.76s WALL (      54 calls)
     vdW_v        :     18.74s CPU     19.87s WALL (      27 calls)

     Called by c_bands:
     init_us_2    :      9.97s CPU     10.24s WALL (     330 calls)
     cegterg      :   7721.96s CPU   8179.14s WALL (     162 calls)

     Called by *egterg:
     h_psi        :   2965.14s CPU   3237.73s WALL (     812 calls)
     s_psi        :    540.80s CPU    547.99s WALL (     812 calls)
     g_psi        :      5.61s CPU      5.60s WALL (     644 calls)
     cdiaghg      :   1953.46s CPU   1958.18s WALL (     800 calls)

     Called by h_psi:
     add_vuspsi   :    541.50s CPU    553.82s WALL (     812 calls)

     General routines
     calbec       :   1013.27s CPU   1015.84s WALL (     974 calls)
     fft          :    225.32s CPU    239.67s WALL (    1782 calls)
     ffts         :      4.50s CPU      4.74s WALL (      54 calls)
     fftw         :   1954.94s CPU   2251.48s WALL (  437444 calls)
     interpolate  :      9.68s CPU     10.52s WALL (      54 calls)
     davcio       :      0.00s CPU      0.15s WALL (       6 calls)

     Parallel routines
     fft_scatter  :   1425.49s CPU   1659.31s WALL (  439280 calls)

     PWSCF        :     2h41m CPU        2h50m WALL


   This run was terminated on:   8:58:37   2Jul2015            

=------------------------------------------------------------------------------=
   JOB DONE.
=------------------------------------------------------------------------------=
