
     Program PWSCF v.5.1.2 starts on 24Aug2015 at  4:30:37 

     This program is part of the open-source Quantum ESPRESSO suite
     for quantum simulation of materials; please cite
         "P. Giannozzi et al., J. Phys.:Condens. Matter 21 395502 (2009);
          URL http://www.quantum-espresso.org", 
     in publications or presentations arising from this work. More details at
     http://www.quantum-espresso.org/quote

     Parallel version (MPI), running on    32 processors
     R & G space division:  proc/nbgrp/npool/nimage =      32
     Reading input from bridge.H2.Au6165.d.2.3.phi.45.psi.0.in
Warning: card &IONS ignored
Warning: card / ignored
Warning: card &CELL ignored
Warning: card / ignored

     Current dimensions of program PWSCF are:
     Max number of different atomic species (ntypx) = 10
     Max number of k-points (npk) =  40000
     Max angular momentum in pseudopotentials (lmaxx) =  3

     IMPORTANT: XC functional enforced from input :
     Exchange-correlation      = VDW-DF ( 1  4  4  0 1 0)
     Any further DFT definition will be discarded
     Please, verify this is what you really want


     Subspace diagonalization in iterative solution of the eigenvalue problem:
     a serial algorithm will be used


     Parallelization info
     --------------------
     sticks:   dense  smooth     PW     G-vecs:    dense   smooth      PW
     Min         578     289     74               118518    41891    5486
     Max         579     290     75               118533    41932    5497
     Sum       18505    9265   2385              3792731  1341081  175711


     Title: 
     bridge.H2.Au6165.d.2.3.phi.45.psi.0                                        


     bravais-lattice index     =            8
     lattice parameter (alat)  =      24.1233  a.u.
     unit-cell volume          =   28076.2361 (a.u.)^3
     number of atoms/cell      =           75
     number of atomic types    =            3
     number of electrons       =       800.00
     number of Kohn-Sham states=          480
     kinetic-energy cutoff     =      50.0000  Ry
     charge density cutoff     =     400.0000  Ry
     convergence threshold     =      1.0E-08
     mixing beta               =       0.7000
     number of iterations used =            8  plain     mixing
     Exchange-correlation      = VDW-DF ( 1  4  4  0 1 0)

     celldm(1)=  24.123277  celldm(2)=   1.000000  celldm(3)=   2.000000
     celldm(4)=   0.000000  celldm(5)=   0.000000  celldm(6)=   0.000000

     crystal axes: (cart. coord. in units of alat)
               a(1) = (   1.000000   0.000000   0.000000 )  
               a(2) = (   0.000000   1.000000   0.000000 )  
               a(3) = (   0.000000   0.000000   2.000000 )  

     reciprocal axes: (cart. coord. in units 2 pi/alat)
               b(1) = (  1.000000  0.000000  0.000000 )  
               b(2) = (  0.000000  1.000000  0.000000 )  
               b(3) = (  0.000000  0.000000  0.500000 )  


     PseudoPot. # 1 for Au read from file:
     /home/scc/andrejb/qe/pseudo/Au.pbe-nd-van.UPF
     MD5 check sum: 458681b50f36d87ef23c61b04bba420a
     Pseudo is Ultrasoft + core correction, Zval = 11.0
     Generated by new atomic code, or converted to UPF format
     Using radial grid of  985 points,  3 beta functions with: 
                l(1) =   1
                l(2) =   2
                l(3) =   2
     Q(r) pseudized with  8 coefficients,  rinner =    1.100   1.100   1.100
                                                       1.100   1.100

     PseudoPot. # 2 for H  read from file:
     /home/scc/andrejb/qe/pseudo/H.pbe-van_ak.UPF
     MD5 check sum: 403db7282739603aa925980fa9b8608d
     Pseudo is Ultrasoft, Zval =  1.0
     Generated by new atomic code, or converted to UPF format
     Using radial grid of  615 points,  1 beta functions with: 
                l(1) =   0
     Q(r) pseudized with  8 coefficients,  rinner =    0.800

     PseudoPot. # 3 for O  read from file:
     /home/scc/andrejb/qe/pseudo/O.pbe-van_ak.UPF
     MD5 check sum: 4b8c549914a63cae506c6ff22b5af4fe
     Pseudo is Ultrasoft, Zval =  6.0
     Generated by new atomic code, or converted to UPF format
     Using radial grid of  737 points,  4 beta functions with: 
                l(1) =   0
                l(2) =   0
                l(3) =   1
                l(4) =   1
     Q(r) pseudized with  8 coefficients,  rinner =    0.800   0.800   0.800


     vdW kernel table read from file vdW_kernel_table
     MD5 check sum: 48e77a2e26edf626eeb0eaa751ad5cac

     atomic species   valence    mass     pseudopotential
        Au            11.00   196.96657     Au( 1.00)
        H              1.00     1.01000     H ( 1.00)
        O              6.00    16.00000     O ( 1.00)

     No symmetry found



   Cartesian axes

     site n.     atom                  positions (alat units)
         1           O   tau(   1) = (   0.2519727   0.4390712   0.7523473  )
         2           H   tau(   2) = (   0.2499161   0.4165269   0.6794918  )
         3           H   tau(   3) = (   0.2460693   0.3745090   0.7925380  )
         4           Au  tau(   4) = (   0.0000000   0.0000000   0.0000000  )
         5           Au  tau(   5) = (   0.3332217   0.0000000   0.0000000  )
         6           Au  tau(   6) = (   0.6664434   0.0000000   0.0000000  )
         7           Au  tau(   7) = (   0.1666109   0.1666109   0.0000000  )
         8           Au  tau(   8) = (   0.4998326   0.1666109   0.0000000  )
         9           Au  tau(   9) = (   0.8330542   0.1666109   0.0000000  )
        10           Au  tau(  10) = (   0.0000000   0.3332217   0.0000000  )
        11           Au  tau(  11) = (   0.3332217   0.3332217   0.0000000  )
        12           Au  tau(  12) = (   0.6664434   0.3332217   0.0000000  )
        13           Au  tau(  13) = (   0.1666109   0.4998326   0.0000000  )
        14           Au  tau(  14) = (   0.4998326   0.4998326   0.0000000  )
        15           Au  tau(  15) = (   0.8330542   0.4998326   0.0000000  )
        16           Au  tau(  16) = (   0.0000000   0.6664434   0.0000000  )
        17           Au  tau(  17) = (   0.3332217   0.6664434   0.0000000  )
        18           Au  tau(  18) = (   0.6664434   0.6664434   0.0000000  )
        19           Au  tau(  19) = (   0.1666109   0.8330542   0.0000000  )
        20           Au  tau(  20) = (   0.4998326   0.8330542   0.0000000  )
        21           Au  tau(  21) = (   0.8330542   0.8330542   0.0000000  )
        22           Au  tau(  22) = (   0.1666109   0.0000000   0.1666109  )
        23           Au  tau(  23) = (   0.4998326   0.0000000   0.1666109  )
        24           Au  tau(  24) = (   0.8330542   0.0000000   0.1666109  )
        25           Au  tau(  25) = (   0.0000000   0.1666109   0.1666109  )
        26           Au  tau(  26) = (   0.3332217   0.1666109   0.1666109  )
        27           Au  tau(  27) = (   0.6664434   0.1666109   0.1666109  )
        28           Au  tau(  28) = (   0.1666109   0.3332217   0.1666109  )
        29           Au  tau(  29) = (   0.4998326   0.3332217   0.1666109  )
        30           Au  tau(  30) = (   0.8330542   0.3332217   0.1666109  )
        31           Au  tau(  31) = (   0.0000000   0.4998326   0.1666109  )
        32           Au  tau(  32) = (   0.3332217   0.4998326   0.1666109  )
        33           Au  tau(  33) = (   0.6664434   0.4998326   0.1666109  )
        34           Au  tau(  34) = (   0.1666109   0.6664434   0.1666109  )
        35           Au  tau(  35) = (   0.4998326   0.6664434   0.1666109  )
        36           Au  tau(  36) = (   0.8330542   0.6664434   0.1666109  )
        37           Au  tau(  37) = (   0.0000000   0.8330542   0.1666109  )
        38           Au  tau(  38) = (   0.3332217   0.8330542   0.1666109  )
        39           Au  tau(  39) = (   0.6664434   0.8330542   0.1666109  )
        40           Au  tau(  40) = (  -0.0000182  -0.0000182   0.3335478  )
        41           Au  tau(  41) = (   0.3332215  -0.0000181   0.3335473  )
        42           Au  tau(  42) = (   0.6664447  -0.0000183   0.3335481  )
        43           Au  tau(  43) = (  -0.0000181   0.3332215   0.3335473  )
        44           Au  tau(  44) = (   0.3332215   0.3332215   0.3335468  )
        45           Au  tau(  45) = (   0.6664445   0.3332215   0.3335477  )
        46           Au  tau(  46) = (  -0.0000183   0.6664447   0.3335481  )
        47           Au  tau(  47) = (   0.3332215   0.6664445   0.3335477  )
        48           Au  tau(  48) = (   0.6664446   0.6664446   0.3335486  )
        49           Au  tau(  49) = (   0.1666097   0.1666097   0.3335483  )
        50           Au  tau(  50) = (   0.4998320   0.1666098   0.3335477  )
        51           Au  tau(  51) = (   0.8330732   0.1666096   0.3335480  )
        52           Au  tau(  52) = (   0.1666098   0.4998320   0.3335477  )
        53           Au  tau(  53) = (   0.4998322   0.4998322   0.3335470  )
        54           Au  tau(  54) = (   0.8330731   0.4998322   0.3335474  )
        55           Au  tau(  55) = (   0.1666096   0.8330732   0.3335480  )
        56           Au  tau(  56) = (   0.4998322   0.8330731   0.3335474  )
        57           Au  tau(  57) = (   0.8330731   0.8330731   0.3335478  )
        58           Au  tau(  58) = (   0.1666104  -0.0000111   0.4993095  )
        59           Au  tau(  59) = (   0.4998323  -0.0000112   0.4993099  )
        60           Au  tau(  60) = (   0.8330660  -0.0000111   0.4993009  )
        61           Au  tau(  61) = (  -0.0000111   0.1666104   0.4993095  )
        62           Au  tau(  62) = (   0.3332213   0.1666106   0.4993185  )
        63           Au  tau(  63) = (   0.6664437   0.1666106   0.4993187  )
        64           Au  tau(  64) = (   0.1666106   0.3332213   0.4993185  )
        65           Au  tau(  65) = (   0.4998324   0.3332216   0.4993185  )
        66           Au  tau(  66) = (   0.8330658   0.3332215   0.4993102  )
        67           Au  tau(  67) = (  -0.0000112   0.4998323   0.4993099  )
        68           Au  tau(  68) = (   0.3332216   0.4998324   0.4993185  )
        69           Au  tau(  69) = (   0.6664437   0.4998325   0.4993187  )
        70           Au  tau(  70) = (   0.1666106   0.6664437   0.4993187  )
        71           Au  tau(  71) = (   0.4998325   0.6664437   0.4993187  )
        72           Au  tau(  72) = (   0.8330658   0.6664438   0.4993102  )
        73           Au  tau(  73) = (  -0.0000111   0.8330660   0.4993009  )
        74           Au  tau(  74) = (   0.3332215   0.8330658   0.4993102  )
        75           Au  tau(  75) = (   0.6664438   0.8330658   0.4993102  )

     number of k points=     6  Marzari-Vanderbilt smearing, width (Ry)=  0.0200
                       cart. coord. in units 2pi/alat
        k(    1) = (   0.2500000   0.2500000   0.0833333), wk =   0.3333333
        k(    2) = (   0.2500000   0.2500000  -0.2500000), wk =   0.3333333
        k(    3) = (  -0.2500000  -0.2500000   0.0833333), wk =   0.3333333
        k(    4) = (  -0.2500000   0.2500000  -0.0833333), wk =   0.3333333
        k(    5) = (   0.2500000  -0.2500000  -0.0833333), wk =   0.3333333
        k(    6) = (  -0.2500000   0.2500000   0.2500000), wk =   0.3333333

     Dense  grid:  3792731 G-vectors     FFT dimensions: ( 160, 160, 320)

     Smooth grid:  1341081 G-vectors     FFT dimensions: ( 120, 120, 225)

     Largest allocated arrays     est. size (Mb)     dimensions
        Kohn-Sham Wavefunctions        38.58 Mb     (    5267,  480)
        NL pseudopotentials            76.03 Mb     (    5267,  946)
        Each V/rho on FFT grid          3.91 Mb     (  256000)
        Each G-vector array             0.90 Mb     (  118520)
        G-vector shells                 0.08 Mb     (   10286)
     Largest temporary arrays     est. size (Mb)     dimensions
        Auxiliary wavefunctions       154.31 Mb     (    5267, 1920)
        Each subspace H/S matrix       56.25 Mb     (    1920, 1920)
        Each <psi_i|beta_j> matrix      6.93 Mb     (     946,  480)
        Arrays for rho mixing          31.25 Mb     (  256000,    8)

     Initial potential from superposition of free atoms
     Check: negative starting charge=   -1.945110

     starting charge  799.16392, renormalised to  800.00000

     negative rho (up, down):  1.947E+00 0.000E+00


     ************************************************************************
     *
     * You are using vdW-DF for exchange-correlation in this calculation.
     * Please cite the following three references that made this development
     * possible:
     *
     *   M. Dion, H. Rydberg, E. Schroder, D. C. Langreth, and
     *   B. I. Lundqvist, Phys. Rev. Lett. 92, 246401 (2004).
     *
     *   T. Thonhauser, V. R. Cooper, S. Li, A. Puzder, P. Hyldgaard, and
     *   D. C. Langreth, Phys. Rev. B 76, 125112 (2007).
     *
     *   G. Roman-Perez and J. M. Soler, Phys. Rev. Lett. 103, 096102 (2009).
     *
     *
     * If you are using vdW-DF2, please also cite:
     *
     *   K. Lee, E. D. Murray, L. Kong, B. I. Lundqvist, and
     *   D. C. Langreth, Phys. Rev. B 82, 081101(R) (2010).
     *
     *
     * If you are calculating the stress with vdW-DF, please also cite:
     *
     *   R. Sabatini, E. Kucukbenli, B. Kolb, T. Thonhauser, and
     *   S. de Gironcoli, J. Phys.: Condens. Matter 24, 424209 (2012).
     *
     ************************************************************************

     Carrying out vdW-DF run using the following parameters:

     Nqs =      20    Nr_points =    1024   r_max =   100.000
     q_mesh =
               0.00001000     0.04494208     0.09755937     0.15916263
               0.23128650     0.31572767     0.41458969     0.53033537
               0.66584808     0.82450364     1.01025438     1.22772762
               1.48234092     1.78043706     2.12944203     2.53805004
               3.01644009     3.57652955     4.23227104     5.00000000

     Gradients computed in reciprocal space

     ************************************************************************


     Starting wfc are  654 randomized atomic wfcs

     total cpu time spent up to now is      135.5 secs

     Self-consistent Calculation

     iteration #  1     ecut=    50.00 Ry     beta=0.70
     Davidson diagonalization with overlap
     ethr =  1.00E-02,  avg # of iterations =  3.0

     Threshold (ethr) on eigenvalues was too large:
     Diagonalizing with lowered threshold

     Davidson diagonalization with overlap
     ethr =  4.19E-04,  avg # of iterations =  2.0

     negative rho (up, down):  1.947E+00 0.000E+00

     total cpu time spent up to now is      561.5 secs

     total energy              =   -7423.05082437 Ry
     Harris-Foulkes estimate   =   -7426.06784571 Ry
     estimated scf accuracy    <       3.72902491 Ry

     iteration #  2     ecut=    50.00 Ry     beta=0.70
     Davidson diagonalization with overlap
     ethr =  4.66E-04,  avg # of iterations = 11.3

     negative rho (up, down):  1.943E+00 0.000E+00

     total cpu time spent up to now is     1284.5 secs

     total energy              =   -7415.33366300 Ry
     Harris-Foulkes estimate   =   -7432.55163527 Ry
     estimated scf accuracy    <      89.21460875 Ry

     iteration #  3     ecut=    50.00 Ry     beta=0.70
     Davidson diagonalization with overlap
     ethr =  4.66E-04,  avg # of iterations =  6.0

     negative rho (up, down):  1.953E+00 0.000E+00

     total cpu time spent up to now is     1736.7 secs

     total energy              =   -7424.07862572 Ry
     Harris-Foulkes estimate   =   -7425.89044706 Ry
     estimated scf accuracy    <       7.67404817 Ry

     iteration #  4     ecut=    50.00 Ry     beta=0.70
     Davidson diagonalization with overlap
     ethr =  4.66E-04,  avg # of iterations =  5.0

     negative rho (up, down):  1.956E+00 0.000E+00

     total cpu time spent up to now is     1992.0 secs

     total energy              =   -7424.81951638 Ry
     Harris-Foulkes estimate   =   -7425.68169948 Ry
     estimated scf accuracy    <       4.74288866 Ry

     iteration #  5     ecut=    50.00 Ry     beta=0.70
     Davidson diagonalization with overlap
     ethr =  4.66E-04,  avg # of iterations =  5.3

     negative rho (up, down):  1.963E+00 0.000E+00

     total cpu time spent up to now is     2257.5 secs

     total energy              =   -7425.08359331 Ry
     Harris-Foulkes estimate   =   -7425.58119988 Ry
     estimated scf accuracy    <       3.76434053 Ry

     iteration #  6     ecut=    50.00 Ry     beta=0.70
     Davidson diagonalization with overlap
     ethr =  4.66E-04,  avg # of iterations =  2.5

     negative rho (up, down):  1.967E+00 0.000E+00

     total cpu time spent up to now is     2476.3 secs

     total energy              =   -7425.28064569 Ry
     Harris-Foulkes estimate   =   -7425.33392147 Ry
     estimated scf accuracy    <       0.18389683 Ry

     iteration #  7     ecut=    50.00 Ry     beta=0.70
     Davidson diagonalization with overlap
     ethr =  2.30E-05,  avg # of iterations =  5.8

     negative rho (up, down):  1.970E+00 0.000E+00

     total cpu time spent up to now is     2761.5 secs

     total energy              =   -7425.28267984 Ry
     Harris-Foulkes estimate   =   -7425.33144789 Ry
     estimated scf accuracy    <       0.25623214 Ry

     iteration #  8     ecut=    50.00 Ry     beta=0.70
     Davidson diagonalization with overlap
     ethr =  2.30E-05,  avg # of iterations =  3.0

     negative rho (up, down):  1.971E+00 0.000E+00

     total cpu time spent up to now is     2986.2 secs

     total energy              =   -7425.29257701 Ry
     Harris-Foulkes estimate   =   -7425.31108212 Ry
     estimated scf accuracy    <       0.07791165 Ry

     iteration #  9     ecut=    50.00 Ry     beta=0.70
     Davidson diagonalization with overlap
     ethr =  9.74E-06,  avg # of iterations = 13.7

     negative rho (up, down):  1.972E+00 0.000E+00

     total cpu time spent up to now is     3342.6 secs

     total energy              =   -7425.29259208 Ry
     Harris-Foulkes estimate   =   -7425.30321186 Ry
     estimated scf accuracy    <       0.03715704 Ry

     iteration # 10     ecut=    50.00 Ry     beta=0.70
     Davidson diagonalization with overlap
     ethr =  4.64E-06,  avg # of iterations =  5.7

     negative rho (up, down):  1.973E+00 0.000E+00

     total cpu time spent up to now is     3599.5 secs

     total energy              =   -7425.29327850 Ry
     Harris-Foulkes estimate   =   -7425.29687945 Ry
     estimated scf accuracy    <       0.01144869 Ry

     iteration # 11     ecut=    50.00 Ry     beta=0.70
     Davidson diagonalization with overlap
     ethr =  1.43E-06,  avg # of iterations =  8.7

     negative rho (up, down):  1.974E+00 0.000E+00

     total cpu time spent up to now is     3893.9 secs

     total energy              =   -7425.29336993 Ry
     Harris-Foulkes estimate   =   -7425.29487773 Ry
     estimated scf accuracy    <       0.00529721 Ry

     iteration # 12     ecut=    50.00 Ry     beta=0.70
     Davidson diagonalization with overlap
     ethr =  6.62E-07,  avg # of iterations =  3.2

     negative rho (up, down):  1.974E+00 0.000E+00

     total cpu time spent up to now is     4114.4 secs

     total energy              =   -7425.29270246 Ry
     Harris-Foulkes estimate   =   -7425.29387256 Ry
     estimated scf accuracy    <       0.00175933 Ry

     iteration # 13     ecut=    50.00 Ry     beta=0.70
     Davidson diagonalization with overlap
     ethr =  2.20E-07,  avg # of iterations =  6.8

     negative rho (up, down):  1.974E+00 0.000E+00

     total cpu time spent up to now is     4500.4 secs

     total energy              =   -7425.29220170 Ry
     Harris-Foulkes estimate   =   -7425.29433016 Ry
     estimated scf accuracy    <       0.00955739 Ry

     iteration # 14     ecut=    50.00 Ry     beta=0.70
     Davidson diagonalization with overlap
     ethr =  2.20E-07,  avg # of iterations =  3.0

     negative rho (up, down):  1.974E+00 0.000E+00

     total cpu time spent up to now is     4770.4 secs

     total energy              =   -7425.29310564 Ry
     Harris-Foulkes estimate   =   -7425.29339562 Ry
     estimated scf accuracy    <       0.00128778 Ry

     iteration # 15     ecut=    50.00 Ry     beta=0.70
     Davidson diagonalization with overlap
     ethr =  1.61E-07,  avg # of iterations =  2.0

     negative rho (up, down):  1.974E+00 0.000E+00

     total cpu time spent up to now is     4985.7 secs

     total energy              =   -7425.29319838 Ry
     Harris-Foulkes estimate   =   -7425.29332029 Ry
     estimated scf accuracy    <       0.00053108 Ry

     iteration # 16     ecut=    50.00 Ry     beta=0.70
     Davidson diagonalization with overlap
     ethr =  6.64E-08,  avg # of iterations =  2.0

     negative rho (up, down):  1.974E+00 0.000E+00

     total cpu time spent up to now is     5201.2 secs

     total energy              =   -7425.29316999 Ry
     Harris-Foulkes estimate   =   -7425.29339528 Ry
     estimated scf accuracy    <       0.00192465 Ry

     iteration # 17     ecut=    50.00 Ry     beta=0.70
     Davidson diagonalization with overlap
     ethr =  6.64E-08,  avg # of iterations =  1.0

     negative rho (up, down):  1.974E+00 0.000E+00

     total cpu time spent up to now is     5408.0 secs

     total energy              =   -7425.29327420 Ry
     Harris-Foulkes estimate   =   -7425.29328833 Ry
     estimated scf accuracy    <       0.00004249 Ry

     iteration # 18     ecut=    50.00 Ry     beta=0.70
     Davidson diagonalization with overlap
     ethr =  5.31E-09,  avg # of iterations =  2.3

     negative rho (up, down):  1.974E+00 0.000E+00

     total cpu time spent up to now is     5649.5 secs

     total energy              =   -7425.29328012 Ry
     Harris-Foulkes estimate   =   -7425.29328605 Ry
     estimated scf accuracy    <       0.00002675 Ry

     iteration # 19     ecut=    50.00 Ry     beta=0.70
     Davidson diagonalization with overlap
     ethr =  3.34E-09,  avg # of iterations =  2.0

     negative rho (up, down):  1.974E+00 0.000E+00

     total cpu time spent up to now is     5860.4 secs

     total energy              =   -7425.29328205 Ry
     Harris-Foulkes estimate   =   -7425.29328525 Ry
     estimated scf accuracy    <       0.00001444 Ry

     iteration # 20     ecut=    50.00 Ry     beta=0.70
     Davidson diagonalization with overlap
     ethr =  1.80E-09,  avg # of iterations =  2.0

     negative rho (up, down):  1.974E+00 0.000E+00

     total cpu time spent up to now is     6064.8 secs

     total energy              =   -7425.29328355 Ry
     Harris-Foulkes estimate   =   -7425.29328423 Ry
     estimated scf accuracy    <       0.00000235 Ry

     iteration # 21     ecut=    50.00 Ry     beta=0.70
     Davidson diagonalization with overlap
     ethr =  2.94E-10,  avg # of iterations =  2.0

     negative rho (up, down):  1.974E+00 0.000E+00

     total cpu time spent up to now is     6280.5 secs

     total energy              =   -7425.29328390 Ry
     Harris-Foulkes estimate   =   -7425.29328419 Ry
     estimated scf accuracy    <       0.00000142 Ry

     iteration # 22     ecut=    50.00 Ry     beta=0.70
     Davidson diagonalization with overlap
     ethr =  1.78E-10,  avg # of iterations =  3.0

     negative rho (up, down):  1.974E+00 0.000E+00

     total cpu time spent up to now is     6500.4 secs

     total energy              =   -7425.29328412 Ry
     Harris-Foulkes estimate   =   -7425.29328418 Ry
     estimated scf accuracy    <       0.00000035 Ry

     iteration # 23     ecut=    50.00 Ry     beta=0.70
     Davidson diagonalization with overlap
     ethr =  4.42E-11,  avg # of iterations =  3.0

     negative rho (up, down):  1.974E+00 0.000E+00

     total cpu time spent up to now is     6733.9 secs

     total energy              =   -7425.29328414 Ry
     Harris-Foulkes estimate   =   -7425.29328420 Ry
     estimated scf accuracy    <       0.00000016 Ry

     iteration # 24     ecut=    50.00 Ry     beta=0.70
     Davidson diagonalization with overlap
     ethr =  1.95E-11,  avg # of iterations =  2.0

     negative rho (up, down):  1.974E+00 0.000E+00

     total cpu time spent up to now is     6949.5 secs

     total energy              =   -7425.29328418 Ry
     Harris-Foulkes estimate   =   -7425.29328419 Ry
     estimated scf accuracy    <       0.00000019 Ry

     iteration # 25     ecut=    50.00 Ry     beta=0.70
     Davidson diagonalization with overlap
     ethr =  1.95E-11,  avg # of iterations =  2.0

     negative rho (up, down):  1.974E+00 0.000E+00

     total cpu time spent up to now is     7161.1 secs

     total energy              =   -7425.29328421 Ry
     Harris-Foulkes estimate   =   -7425.29328421 Ry
     estimated scf accuracy    <       0.00000011 Ry

     iteration # 26     ecut=    50.00 Ry     beta=0.70
     Davidson diagonalization with overlap
     ethr =  1.41E-11,  avg # of iterations =  2.0

     negative rho (up, down):  1.974E+00 0.000E+00

     total cpu time spent up to now is     7371.8 secs

     total energy              =   -7425.29328422 Ry
     Harris-Foulkes estimate   =   -7425.29328422 Ry
     estimated scf accuracy    <       0.00000005 Ry

     iteration # 27     ecut=    50.00 Ry     beta=0.70
     Davidson diagonalization with overlap
     ethr =  5.87E-12,  avg # of iterations =  2.0

     negative rho (up, down):  1.974E+00 0.000E+00

     total cpu time spent up to now is     7597.8 secs

     total energy              =   -7425.29328422 Ry
     Harris-Foulkes estimate   =   -7425.29328424 Ry
     estimated scf accuracy    <       0.00000007 Ry

     iteration # 28     ecut=    50.00 Ry     beta=0.70
     Davidson diagonalization with overlap
     ethr =  5.87E-12,  avg # of iterations =  2.0

     negative rho (up, down):  1.974E+00 0.000E+00

     total cpu time spent up to now is     7802.9 secs

     End of self-consistent calculation

          k = 0.2500 0.2500 0.0833 (167653 PWs)   bands (ev):

   -19.1873  -7.0709  -6.8691  -6.3430  -6.3422  -5.9135  -5.5042  -5.4121
    -5.4105  -5.2155  -5.2150  -5.0986  -5.0962  -5.0189  -4.9959  -4.9230
    -4.8381  -4.8343  -4.7958  -4.7949  -4.6347  -4.6180  -4.6172  -4.6158
    -4.6093  -4.5538  -4.5537  -4.5425  -4.5411  -4.5049  -4.4934  -4.4911
    -4.4502  -4.4498  -4.4167  -4.4152  -4.3653  -4.3623  -4.3529  -4.3515
    -4.3458  -4.3328  -4.3326  -4.2919  -4.2738  -4.2730  -4.2665  -4.2659
    -4.2341  -4.1849  -4.1697  -4.1687  -4.1683  -4.1643  -4.1573  -4.1520
    -4.1516  -4.1508  -4.0891  -4.0849  -4.0378  -4.0353  -4.0239  -3.9992
    -3.9974  -3.9796  -3.9751  -3.9744  -3.9703  -3.9678  -3.9187  -3.9183
    -3.9062  -3.9048  -3.8016  -3.7991  -3.7962  -3.7928  -3.7564  -3.7496
    -3.7327  -3.7036  -3.7032  -3.6752  -3.6736  -3.6547  -3.6523  -3.6402
    -3.6380  -3.5848  -3.5835  -3.5667  -3.5497  -3.5391  -3.5381  -3.5369
    -3.5364  -3.5106  -3.5083  -3.4728  -3.4720  -3.4517  -3.4497  -3.4184
    -3.4162  -3.3994  -3.3716  -3.3703  -3.3340  -3.3325  -3.3096  -3.2915
    -3.2894  -3.2876  -3.2748  -3.2713  -3.2697  -3.2533  -3.2321  -3.2204
    -3.1809  -3.1802  -3.1724  -3.1630  -3.1625  -3.1608  -3.1369  -3.1367
    -3.1166  -3.1153  -3.1138  -3.0879  -3.0874  -3.0803  -3.0778  -3.0760
    -3.0411  -3.0380  -3.0024  -3.0009  -3.0004  -2.9984  -2.9973  -2.9183
    -2.9085  -2.9056  -2.9037  -2.9031  -2.9019  -2.8991  -2.8972  -2.8966
    -2.8964  -2.8872  -2.8794  -2.8630  -2.8599  -2.8586  -2.8583  -2.8443
    -2.8398  -2.8019  -2.8014  -2.8006  -2.7968  -2.7954  -2.7786  -2.7774
    -2.7695  -2.7689  -2.7667  -2.7078  -2.7074  -2.7019  -2.7017  -2.6971
    -2.6961  -2.6686  -2.6098  -2.6086  -2.6083  -2.6057  -2.5946  -2.5927
    -2.5877  -2.5780  -2.5762  -2.5416  -2.5385  -2.5326  -2.5313  -2.5292
    -2.5288  -2.4910  -2.4898  -2.4805  -2.4799  -2.4792  -2.4777  -2.4358
    -2.4207  -2.4149  -2.3624  -2.3607  -2.3436  -2.3416  -2.3361  -2.3352
    -2.2888  -2.2858  -2.2637  -2.2489  -2.2340  -2.2329  -2.2314  -2.2108
    -2.2095  -2.2005  -2.1838  -2.1479  -2.1424  -2.1307  -2.1276  -2.1268
    -2.1186  -2.1165  -2.1062  -2.1017  -2.1011  -2.0968  -2.0934  -2.0912
    -2.0898  -2.0808  -2.0785  -2.0622  -2.0608  -2.0594  -2.0533  -2.0506
    -2.0490  -2.0275  -2.0252  -2.0148  -2.0131  -2.0081  -2.0068  -1.9694
    -1.9367  -1.9346  -1.9002  -1.8839  -1.8824  -1.8742  -1.8705  -1.8491
    -1.8477  -1.8357  -1.8326  -1.8322  -1.8314  -1.8304  -1.8270  -1.7969
    -1.7955  -1.7950  -1.7505  -1.7490  -1.7117  -1.7084  -1.6627  -1.6621
    -1.6498  -1.6273  -1.6239  -1.6195  -1.6048  -1.6019  -1.5875  -1.5826
    -1.5815  -1.5786  -1.5779  -1.5763  -1.5758  -1.5745  -1.5546  -1.5530
    -1.5430  -1.5262  -1.5078  -1.5070  -1.4825  -1.4797  -1.4783  -1.4763
    -1.4755  -1.4709  -1.4514  -1.4489  -1.4365  -1.4329  -1.4214  -1.4117
    -1.4011  -1.3960  -1.3674  -1.3657  -1.3597  -1.3576  -1.3253  -1.3237
    -1.3166  -1.3131  -1.3093  -1.3052  -1.2862  -1.2826  -1.2750  -1.2716
    -1.2637  -1.2577  -1.2533  -1.2499  -1.2497  -1.2365  -1.2291  -1.2258
    -1.2229  -1.2177  -1.2162  -1.2027  -1.2015  -1.1941  -1.1796  -1.1543
    -1.1515  -1.1462  -1.1453  -1.1446  -1.1382  -1.1058  -1.0899  -1.0874
    -1.0871  -1.0863  -1.0826  -1.0783  -1.0763  -1.0647  -1.0626  -1.0254
    -1.0249  -1.0190  -1.0185  -0.9967  -0.9957  -0.9863  -0.9567  -0.9487
    -0.9226  -0.9203  -0.8937  -0.8935  -0.8902  -0.8895  -0.8880  -0.8839
    -0.8800  -0.8792  -0.8759  -0.8737  -0.8431  -0.8417  -0.8235  -0.8219
    -0.8199  -0.8176  -0.8167  -0.8146  -0.7981  -0.5237  -0.5116  -0.4554
    -0.4522  -0.4168  -0.2570  -0.1924  -0.1898  -0.1568   0.1279   0.1295
     0.4580   0.4618   0.5557   0.5579   0.5959   0.6003   0.7409   0.7456
     0.8658   0.8683   0.9590   1.5535   1.5709   1.5726   1.6111   1.6169
     1.6604   1.6692   1.7398   1.7443   1.9463   1.9502   2.1870   2.2611
     2.2677   2.2800   2.6598   2.6674   2.7332   2.7349   2.7407   2.7433
     2.8914   2.8944   2.9499   3.0333   3.0428   3.2671   3.2692   3.4028
     3.4283   3.4331   3.6994   3.7057   3.8184   3.8332   3.8351   3.9055
     3.9294   4.0161   4.0234   4.2540   4.2592   4.3471   4.3517   4.4713
     4.4724   4.4952   4.5023   4.6623   5.1333   5.3156   5.3264   5.3978
     5.4066   5.5197   5.5774   5.5857   5.6481   5.6966   5.7017   5.7096
     5.7401   5.7472   5.7536   5.7939   6.0072   6.0556   6.0760   6.0816
     6.0873   6.0945   6.0975   6.1039   6.1046   6.1498   6.1726   6.1964

          k = 0.2500 0.2500-0.2500 (167588 PWs)   bands (ev):

   -19.1873  -7.0708  -6.8691  -6.3430  -6.3422  -5.9135  -5.5042  -5.4121
    -5.4105  -5.2155  -5.2150  -5.0986  -5.0962  -5.0189  -4.9959  -4.9230
    -4.8381  -4.8343  -4.7958  -4.7949  -4.6347  -4.6180  -4.6172  -4.6158
    -4.6093  -4.5538  -4.5537  -4.5425  -4.5411  -4.5049  -4.4934  -4.4911
    -4.4502  -4.4498  -4.4167  -4.4153  -4.3653  -4.3623  -4.3529  -4.3515
    -4.3458  -4.3328  -4.3326  -4.2919  -4.2738  -4.2730  -4.2665  -4.2659
    -4.2341  -4.1849  -4.1697  -4.1687  -4.1683  -4.1643  -4.1573  -4.1520
    -4.1516  -4.1508  -4.0891  -4.0849  -4.0378  -4.0353  -4.0239  -3.9992
    -3.9974  -3.9796  -3.9751  -3.9744  -3.9703  -3.9678  -3.9187  -3.9183
    -3.9062  -3.9048  -3.8016  -3.7991  -3.7962  -3.7928  -3.7564  -3.7496
    -3.7327  -3.7036  -3.7032  -3.6752  -3.6736  -3.6547  -3.6523  -3.6402
    -3.6380  -3.5848  -3.5835  -3.5667  -3.5498  -3.5391  -3.5381  -3.5368
    -3.5364  -3.5106  -3.5083  -3.4728  -3.4720  -3.4517  -3.4497  -3.4184
    -3.4162  -3.3994  -3.3716  -3.3703  -3.3340  -3.3325  -3.3096  -3.2915
    -3.2894  -3.2876  -3.2748  -3.2713  -3.2697  -3.2533  -3.2321  -3.2204
    -3.1809  -3.1802  -3.1724  -3.1630  -3.1625  -3.1608  -3.1369  -3.1367
    -3.1166  -3.1153  -3.1138  -3.0879  -3.0874  -3.0803  -3.0778  -3.0760
    -3.0411  -3.0380  -3.0024  -3.0009  -3.0004  -2.9984  -2.9973  -2.9183
    -2.9085  -2.9056  -2.9037  -2.9031  -2.9019  -2.8991  -2.8972  -2.8966
    -2.8964  -2.8872  -2.8794  -2.8630  -2.8598  -2.8586  -2.8583  -2.8443
    -2.8398  -2.8019  -2.8014  -2.8006  -2.7968  -2.7954  -2.7786  -2.7774
    -2.7695  -2.7689  -2.7667  -2.7078  -2.7074  -2.7019  -2.7017  -2.6971
    -2.6961  -2.6686  -2.6098  -2.6086  -2.6083  -2.6057  -2.5946  -2.5927
    -2.5877  -2.5780  -2.5762  -2.5416  -2.5385  -2.5326  -2.5313  -2.5292
    -2.5288  -2.4910  -2.4898  -2.4805  -2.4799  -2.4792  -2.4777  -2.4358
    -2.4207  -2.4149  -2.3624  -2.3607  -2.3436  -2.3416  -2.3361  -2.3352
    -2.2888  -2.2858  -2.2637  -2.2490  -2.2340  -2.2329  -2.2314  -2.2108
    -2.2095  -2.2005  -2.1838  -2.1479  -2.1424  -2.1307  -2.1276  -2.1268
    -2.1186  -2.1165  -2.1062  -2.1017  -2.1011  -2.0968  -2.0934  -2.0912
    -2.0898  -2.0808  -2.0785  -2.0622  -2.0608  -2.0594  -2.0533  -2.0506
    -2.0490  -2.0275  -2.0252  -2.0148  -2.0131  -2.0081  -2.0068  -1.9694
    -1.9367  -1.9346  -1.9002  -1.8839  -1.8824  -1.8742  -1.8704  -1.8491
    -1.8477  -1.8357  -1.8326  -1.8322  -1.8314  -1.8304  -1.8270  -1.7969
    -1.7955  -1.7950  -1.7505  -1.7490  -1.7117  -1.7084  -1.6627  -1.6621
    -1.6499  -1.6273  -1.6239  -1.6195  -1.6048  -1.6019  -1.5875  -1.5826
    -1.5815  -1.5786  -1.5779  -1.5763  -1.5758  -1.5745  -1.5546  -1.5530
    -1.5430  -1.5262  -1.5078  -1.5070  -1.4825  -1.4797  -1.4783  -1.4763
    -1.4755  -1.4709  -1.4514  -1.4489  -1.4365  -1.4330  -1.4214  -1.4117
    -1.4011  -1.3960  -1.3674  -1.3658  -1.3597  -1.3576  -1.3253  -1.3237
    -1.3166  -1.3131  -1.3093  -1.3052  -1.2862  -1.2826  -1.2750  -1.2716
    -1.2637  -1.2577  -1.2533  -1.2499  -1.2497  -1.2365  -1.2291  -1.2258
    -1.2229  -1.2177  -1.2162  -1.2027  -1.2015  -1.1941  -1.1796  -1.1543
    -1.1515  -1.1462  -1.1453  -1.1446  -1.1382  -1.1058  -1.0898  -1.0874
    -1.0871  -1.0863  -1.0826  -1.0783  -1.0763  -1.0647  -1.0626  -1.0254
    -1.0249  -1.0190  -1.0185  -0.9967  -0.9957  -0.9863  -0.9567  -0.9487
    -0.9226  -0.9203  -0.8937  -0.8935  -0.8902  -0.8895  -0.8880  -0.8839
    -0.8800  -0.8792  -0.8759  -0.8737  -0.8431  -0.8417  -0.8235  -0.8219
    -0.8199  -0.8176  -0.8167  -0.8146  -0.7981  -0.5237  -0.5116  -0.4554
    -0.4522  -0.4168  -0.2570  -0.1924  -0.1898  -0.1568   0.1279   0.1295
     0.4580   0.4618   0.5557   0.5579   0.5959   0.6003   0.7409   0.7456
     0.8659   0.8683   0.9590   1.5535   1.5709   1.5726   1.6111   1.6169
     1.6604   1.6692   1.7398   1.7443   1.9463   1.9502   2.1870   2.2611
     2.2677   2.2800   2.6598   2.6674   2.7332   2.7349   2.7407   2.7433
     2.8914   2.8944   2.9499   3.0333   3.0428   3.2671   3.2693   3.4028
     3.4283   3.4331   3.6994   3.7057   3.8184   3.8332   3.8351   3.9056
     3.9295   4.0161   4.0234   4.2540   4.2592   4.3471   4.3517   4.4713
     4.4724   4.4952   4.5023   4.6625   5.1251   5.3147   5.3216   5.3975
     5.4063   5.5218   5.5779   5.5858   5.6553   5.6989   5.7014   5.7247
     5.7405   5.7533   5.7610   5.7942   6.0304   6.0594   6.0770   6.0833
     6.0853   6.0966   6.1037   6.1044   6.1073   6.1281   6.1854   6.2127

          k =-0.2500-0.2500 0.0833 (167653 PWs)   bands (ev):

   -19.1873  -7.0709  -6.8691  -6.3430  -6.3422  -5.9135  -5.5042  -5.4121
    -5.4105  -5.2155  -5.2150  -5.0986  -5.0962  -5.0189  -4.9959  -4.9230
    -4.8381  -4.8343  -4.7958  -4.7949  -4.6347  -4.6180  -4.6172  -4.6158
    -4.6093  -4.5538  -4.5537  -4.5425  -4.5411  -4.5049  -4.4934  -4.4911
    -4.4502  -4.4498  -4.4167  -4.4152  -4.3653  -4.3623  -4.3529  -4.3515
    -4.3458  -4.3328  -4.3326  -4.2919  -4.2738  -4.2730  -4.2665  -4.2659
    -4.2341  -4.1849  -4.1697  -4.1687  -4.1683  -4.1643  -4.1573  -4.1520
    -4.1516  -4.1508  -4.0891  -4.0849  -4.0378  -4.0353  -4.0239  -3.9992
    -3.9974  -3.9796  -3.9751  -3.9744  -3.9703  -3.9678  -3.9187  -3.9183
    -3.9062  -3.9048  -3.8016  -3.7991  -3.7962  -3.7928  -3.7564  -3.7496
    -3.7327  -3.7036  -3.7032  -3.6752  -3.6736  -3.6547  -3.6523  -3.6402
    -3.6380  -3.5848  -3.5835  -3.5667  -3.5497  -3.5391  -3.5381  -3.5369
    -3.5364  -3.5106  -3.5083  -3.4728  -3.4720  -3.4517  -3.4497  -3.4184
    -3.4162  -3.3994  -3.3716  -3.3703  -3.3340  -3.3325  -3.3096  -3.2915
    -3.2894  -3.2876  -3.2748  -3.2713  -3.2697  -3.2533  -3.2321  -3.2204
    -3.1809  -3.1802  -3.1724  -3.1630  -3.1625  -3.1608  -3.1369  -3.1367
    -3.1166  -3.1153  -3.1138  -3.0879  -3.0874  -3.0803  -3.0778  -3.0760
    -3.0411  -3.0380  -3.0024  -3.0009  -3.0004  -2.9984  -2.9973  -2.9183
    -2.9085  -2.9056  -2.9037  -2.9031  -2.9019  -2.8991  -2.8972  -2.8966
    -2.8964  -2.8872  -2.8794  -2.8630  -2.8599  -2.8586  -2.8583  -2.8443
    -2.8398  -2.8019  -2.8014  -2.8006  -2.7968  -2.7954  -2.7786  -2.7774
    -2.7695  -2.7689  -2.7667  -2.7078  -2.7074  -2.7019  -2.7017  -2.6971
    -2.6961  -2.6686  -2.6098  -2.6086  -2.6083  -2.6057  -2.5946  -2.5927
    -2.5877  -2.5780  -2.5762  -2.5416  -2.5385  -2.5326  -2.5313  -2.5292
    -2.5288  -2.4910  -2.4898  -2.4805  -2.4799  -2.4792  -2.4777  -2.4358
    -2.4207  -2.4149  -2.3624  -2.3607  -2.3436  -2.3416  -2.3361  -2.3352
    -2.2888  -2.2858  -2.2637  -2.2489  -2.2340  -2.2329  -2.2314  -2.2108
    -2.2095  -2.2005  -2.1838  -2.1479  -2.1424  -2.1307  -2.1276  -2.1268
    -2.1186  -2.1165  -2.1062  -2.1017  -2.1011  -2.0968  -2.0934  -2.0912
    -2.0898  -2.0808  -2.0785  -2.0622  -2.0608  -2.0594  -2.0533  -2.0506
    -2.0490  -2.0275  -2.0252  -2.0148  -2.0131  -2.0081  -2.0068  -1.9694
    -1.9367  -1.9346  -1.9002  -1.8839  -1.8824  -1.8742  -1.8705  -1.8491
    -1.8477  -1.8357  -1.8326  -1.8322  -1.8314  -1.8304  -1.8270  -1.7969
    -1.7955  -1.7950  -1.7505  -1.7490  -1.7117  -1.7084  -1.6627  -1.6621
    -1.6498  -1.6273  -1.6239  -1.6195  -1.6048  -1.6019  -1.5875  -1.5826
    -1.5815  -1.5786  -1.5779  -1.5763  -1.5758  -1.5745  -1.5546  -1.5530
    -1.5430  -1.5262  -1.5078  -1.5070  -1.4825  -1.4797  -1.4783  -1.4763
    -1.4755  -1.4709  -1.4514  -1.4489  -1.4365  -1.4329  -1.4214  -1.4117
    -1.4011  -1.3960  -1.3674  -1.3657  -1.3597  -1.3576  -1.3253  -1.3237
    -1.3166  -1.3131  -1.3093  -1.3052  -1.2862  -1.2826  -1.2750  -1.2716
    -1.2637  -1.2577  -1.2533  -1.2499  -1.2497  -1.2365  -1.2291  -1.2258
    -1.2229  -1.2177  -1.2162  -1.2027  -1.2015  -1.1941  -1.1796  -1.1543
    -1.1515  -1.1462  -1.1453  -1.1446  -1.1382  -1.1058  -1.0899  -1.0874
    -1.0871  -1.0863  -1.0826  -1.0783  -1.0763  -1.0647  -1.0626  -1.0254
    -1.0249  -1.0190  -1.0185  -0.9967  -0.9957  -0.9863  -0.9567  -0.9487
    -0.9226  -0.9203  -0.8937  -0.8935  -0.8902  -0.8895  -0.8880  -0.8839
    -0.8800  -0.8792  -0.8759  -0.8737  -0.8431  -0.8417  -0.8235  -0.8219
    -0.8199  -0.8176  -0.8167  -0.8146  -0.7981  -0.5237  -0.5116  -0.4554
    -0.4522  -0.4168  -0.2570  -0.1924  -0.1898  -0.1568   0.1279   0.1295
     0.4580   0.4618   0.5557   0.5579   0.5959   0.6003   0.7409   0.7456
     0.8658   0.8683   0.9590   1.5535   1.5709   1.5726   1.6111   1.6169
     1.6604   1.6692   1.7398   1.7443   1.9463   1.9502   2.1870   2.2611
     2.2677   2.2800   2.6598   2.6674   2.7332   2.7349   2.7407   2.7433
     2.8914   2.8944   2.9499   3.0333   3.0428   3.2671   3.2692   3.4028
     3.4283   3.4331   3.6994   3.7057   3.8184   3.8332   3.8351   3.9055
     3.9294   4.0161   4.0234   4.2540   4.2592   4.3471   4.3517   4.4713
     4.4724   4.4952   4.5023   4.6623   5.1330   5.3155   5.3273   5.3977
     5.4066   5.5172   5.5772   5.5857   5.6490   5.6971   5.7017   5.7119
     5.7401   5.7478   5.7537   5.7939   6.0083   6.0556   6.0762   6.0815
     6.0872   6.0935   6.0974   6.1039   6.1047   6.1504   6.1677   6.1936

          k =-0.2500 0.2500-0.0833 (167653 PWs)   bands (ev):

   -19.1873  -7.0709  -6.8690  -6.3433  -6.3421  -5.9133  -5.5042  -5.4117
    -5.4107  -5.2154  -5.2152  -5.0983  -5.0964  -5.0188  -4.9959  -4.9230
    -4.8382  -4.8342  -4.7957  -4.7950  -4.6349  -4.6179  -4.6169  -4.6160
    -4.6094  -4.5539  -4.5537  -4.5423  -4.5414  -4.5048  -4.4932  -4.4914
    -4.4502  -4.4498  -4.4165  -4.4154  -4.3643  -4.3626  -4.3532  -4.3514
    -4.3459  -4.3328  -4.3326  -4.2926  -4.2738  -4.2732  -4.2664  -4.2659
    -4.2348  -4.1856  -4.1696  -4.1687  -4.1666  -4.1646  -4.1573  -4.1518
    -4.1516  -4.1510  -4.0874  -4.0853  -4.0378  -4.0358  -4.0241  -3.9982
    -3.9975  -3.9788  -3.9750  -3.9742  -3.9708  -3.9677  -3.9188  -3.9184
    -3.9062  -3.9051  -3.8020  -3.7997  -3.7950  -3.7933  -3.7564  -3.7497
    -3.7328  -3.7040  -3.7033  -3.6751  -3.6739  -3.6538  -3.6524  -3.6408
    -3.6386  -3.5843  -3.5837  -3.5695  -3.5496  -3.5404  -3.5373  -3.5367
    -3.5356  -3.5092  -3.5082  -3.4735  -3.4719  -3.4518  -3.4490  -3.4189
    -3.4158  -3.3991  -3.3737  -3.3705  -3.3349  -3.3330  -3.3020  -3.2926
    -3.2896  -3.2836  -3.2749  -3.2718  -3.2698  -3.2600  -3.2321  -3.2208
    -3.1809  -3.1795  -3.1726  -3.1628  -3.1621  -3.1611  -3.1370  -3.1370
    -3.1162  -3.1153  -3.1142  -3.0880  -3.0873  -3.0803  -3.0773  -3.0763
    -3.0409  -3.0375  -3.0022  -3.0012  -3.0008  -2.9982  -2.9974  -2.9183
    -2.9086  -2.9050  -2.9036  -2.9033  -2.9021  -2.8979  -2.8973  -2.8968
    -2.8965  -2.8872  -2.8794  -2.8632  -2.8599  -2.8584  -2.8577  -2.8443
    -2.8393  -2.8021  -2.8011  -2.8008  -2.7967  -2.7957  -2.7784  -2.7776
    -2.7693  -2.7692  -2.7666  -2.7079  -2.7073  -2.7019  -2.7017  -2.6969
    -2.6959  -2.6688  -2.6099  -2.6089  -2.6081  -2.6057  -2.5947  -2.5925
    -2.5879  -2.5775  -2.5763  -2.5424  -2.5391  -2.5323  -2.5308  -2.5300
    -2.5292  -2.4917  -2.4903  -2.4805  -2.4803  -2.4789  -2.4780  -2.4358
    -2.4199  -2.4154  -2.3618  -2.3610  -2.3434  -2.3417  -2.3361  -2.3355
    -2.2883  -2.2860  -2.2639  -2.2482  -2.2348  -2.2329  -2.2314  -2.2103
    -2.2096  -2.2005  -2.1835  -2.1449  -2.1428  -2.1298  -2.1284  -2.1271
    -2.1184  -2.1169  -2.1048  -2.1013  -2.1002  -2.0972  -2.0930  -2.0913
    -2.0905  -2.0804  -2.0793  -2.0616  -2.0610  -2.0591  -2.0533  -2.0505
    -2.0494  -2.0272  -2.0260  -2.0150  -2.0131  -2.0079  -2.0069  -1.9694
    -1.9365  -1.9354  -1.9002  -1.8833  -1.8828  -1.8740  -1.8708  -1.8495
    -1.8477  -1.8359  -1.8327  -1.8314  -1.8311  -1.8302  -1.8275  -1.7968
    -1.7955  -1.7952  -1.7511  -1.7495  -1.7107  -1.7091  -1.6630  -1.6620
    -1.6496  -1.6278  -1.6244  -1.6195  -1.6053  -1.6020  -1.5860  -1.5838
    -1.5815  -1.5788  -1.5777  -1.5766  -1.5757  -1.5741  -1.5544  -1.5533
    -1.5422  -1.5262  -1.5087  -1.5076  -1.4826  -1.4812  -1.4784  -1.4770
    -1.4748  -1.4703  -1.4497  -1.4491  -1.4360  -1.4331  -1.4211  -1.4116
    -1.3993  -1.3967  -1.3689  -1.3660  -1.3595  -1.3580  -1.3286  -1.3218
    -1.3157  -1.3135  -1.3062  -1.3052  -1.2844  -1.2831  -1.2744  -1.2692
    -1.2644  -1.2572  -1.2522  -1.2508  -1.2499  -1.2379  -1.2310  -1.2254
    -1.2210  -1.2176  -1.2161  -1.2037  -1.2008  -1.1951  -1.1875  -1.1549
    -1.1493  -1.1457  -1.1453  -1.1445  -1.1383  -1.1060  -1.0888  -1.0878
    -1.0874  -1.0859  -1.0833  -1.0794  -1.0777  -1.0628  -1.0603  -1.0269
    -1.0250  -1.0191  -1.0184  -0.9965  -0.9958  -0.9863  -0.9573  -0.9489
    -0.9224  -0.9206  -0.8937  -0.8932  -0.8903  -0.8892  -0.8880  -0.8838
    -0.8798  -0.8792  -0.8754  -0.8739  -0.8427  -0.8421  -0.8240  -0.8218
    -0.8193  -0.8179  -0.8164  -0.8149  -0.7983  -0.5234  -0.5116  -0.4557
    -0.4516  -0.4167  -0.2555  -0.1913  -0.1902  -0.1573   0.1276   0.1294
     0.4576   0.4620   0.5567   0.5575   0.5976   0.6001   0.7418   0.7452
     0.8656   0.8680   0.9589   1.5532   1.5712   1.5717   1.6078   1.6169
     1.6602   1.6705   1.7408   1.7435   1.9475   1.9494   2.1855   2.2609
     2.2673   2.2803   2.6581   2.6678   2.7330   2.7351   2.7412   2.7429
     2.8927   2.8933   2.9494   3.0375   3.0438   3.2682   3.2741   3.4023
     3.4287   3.4316   3.7009   3.7061   3.8114   3.8338   3.8346   3.9053
     3.9318   4.0190   4.0229   4.2569   4.2578   4.3451   4.3517   4.4651
     4.4752   4.4897   4.5016   4.6591   5.1324   5.3166   5.3246   5.4041
     5.4091   5.5166   5.5813   5.5857   5.6501   5.6927   5.7009   5.7096
     5.7489   5.7509   5.7527   5.7987   6.0097   6.0556   6.0693   6.0853
     6.0906   6.0947   6.0973   6.1006   6.1038   6.1520   6.1662   6.1975

          k = 0.2500-0.2500-0.0833 (167653 PWs)   bands (ev):

   -19.1873  -7.0709  -6.8690  -6.3433  -6.3421  -5.9133  -5.5042  -5.4117
    -5.4107  -5.2154  -5.2152  -5.0983  -5.0964  -5.0188  -4.9959  -4.9230
    -4.8382  -4.8342  -4.7957  -4.7950  -4.6349  -4.6179  -4.6169  -4.6160
    -4.6094  -4.5539  -4.5537  -4.5423  -4.5414  -4.5048  -4.4932  -4.4914
    -4.4502  -4.4498  -4.4165  -4.4154  -4.3643  -4.3626  -4.3532  -4.3514
    -4.3459  -4.3328  -4.3326  -4.2926  -4.2738  -4.2732  -4.2664  -4.2659
    -4.2348  -4.1856  -4.1696  -4.1687  -4.1666  -4.1646  -4.1573  -4.1518
    -4.1516  -4.1510  -4.0874  -4.0853  -4.0378  -4.0358  -4.0241  -3.9982
    -3.9975  -3.9788  -3.9750  -3.9742  -3.9708  -3.9677  -3.9188  -3.9184
    -3.9062  -3.9051  -3.8020  -3.7997  -3.7950  -3.7933  -3.7564  -3.7497
    -3.7328  -3.7040  -3.7033  -3.6751  -3.6739  -3.6538  -3.6524  -3.6408
    -3.6386  -3.5843  -3.5837  -3.5695  -3.5496  -3.5404  -3.5373  -3.5367
    -3.5356  -3.5092  -3.5082  -3.4735  -3.4719  -3.4518  -3.4490  -3.4189
    -3.4158  -3.3991  -3.3737  -3.3705  -3.3349  -3.3330  -3.3020  -3.2926
    -3.2896  -3.2836  -3.2749  -3.2718  -3.2698  -3.2600  -3.2321  -3.2208
    -3.1809  -3.1795  -3.1726  -3.1628  -3.1621  -3.1611  -3.1370  -3.1370
    -3.1162  -3.1153  -3.1142  -3.0880  -3.0873  -3.0803  -3.0773  -3.0763
    -3.0409  -3.0375  -3.0022  -3.0012  -3.0008  -2.9982  -2.9974  -2.9183
    -2.9086  -2.9050  -2.9036  -2.9033  -2.9021  -2.8979  -2.8973  -2.8968
    -2.8965  -2.8872  -2.8794  -2.8632  -2.8599  -2.8584  -2.8577  -2.8443
    -2.8393  -2.8021  -2.8011  -2.8008  -2.7967  -2.7957  -2.7784  -2.7776
    -2.7693  -2.7692  -2.7666  -2.7079  -2.7073  -2.7019  -2.7017  -2.6969
    -2.6959  -2.6688  -2.6099  -2.6089  -2.6081  -2.6057  -2.5947  -2.5925
    -2.5879  -2.5775  -2.5763  -2.5424  -2.5391  -2.5323  -2.5308  -2.5300
    -2.5292  -2.4917  -2.4903  -2.4805  -2.4803  -2.4789  -2.4780  -2.4358
    -2.4199  -2.4154  -2.3618  -2.3610  -2.3434  -2.3417  -2.3361  -2.3355
    -2.2883  -2.2860  -2.2639  -2.2482  -2.2348  -2.2329  -2.2314  -2.2103
    -2.2096  -2.2005  -2.1835  -2.1449  -2.1428  -2.1298  -2.1284  -2.1271
    -2.1184  -2.1169  -2.1048  -2.1013  -2.1002  -2.0972  -2.0930  -2.0913
    -2.0905  -2.0804  -2.0793  -2.0616  -2.0610  -2.0591  -2.0533  -2.0505
    -2.0494  -2.0272  -2.0260  -2.0150  -2.0131  -2.0079  -2.0069  -1.9694
    -1.9365  -1.9354  -1.9002  -1.8833  -1.8828  -1.8740  -1.8708  -1.8495
    -1.8477  -1.8359  -1.8327  -1.8314  -1.8311  -1.8302  -1.8275  -1.7968
    -1.7955  -1.7952  -1.7511  -1.7495  -1.7107  -1.7091  -1.6630  -1.6620
    -1.6496  -1.6278  -1.6244  -1.6195  -1.6053  -1.6020  -1.5860  -1.5838
    -1.5815  -1.5788  -1.5777  -1.5766  -1.5757  -1.5741  -1.5544  -1.5533
    -1.5422  -1.5262  -1.5087  -1.5076  -1.4826  -1.4812  -1.4784  -1.4770
    -1.4748  -1.4703  -1.4497  -1.4491  -1.4360  -1.4331  -1.4211  -1.4116
    -1.3993  -1.3967  -1.3689  -1.3660  -1.3595  -1.3580  -1.3286  -1.3218
    -1.3157  -1.3135  -1.3062  -1.3052  -1.2844  -1.2831  -1.2743  -1.2692
    -1.2644  -1.2572  -1.2522  -1.2508  -1.2499  -1.2379  -1.2310  -1.2254
    -1.2210  -1.2176  -1.2161  -1.2037  -1.2008  -1.1951  -1.1875  -1.1549
    -1.1493  -1.1457  -1.1453  -1.1445  -1.1383  -1.1060  -1.0888  -1.0878
    -1.0874  -1.0859  -1.0833  -1.0794  -1.0777  -1.0628  -1.0603  -1.0269
    -1.0250  -1.0191  -1.0184  -0.9965  -0.9958  -0.9863  -0.9573  -0.9489
    -0.9224  -0.9206  -0.8937  -0.8932  -0.8903  -0.8892  -0.8880  -0.8838
    -0.8798  -0.8792  -0.8754  -0.8739  -0.8427  -0.8421  -0.8240  -0.8218
    -0.8193  -0.8179  -0.8164  -0.8149  -0.7983  -0.5234  -0.5116  -0.4557
    -0.4516  -0.4167  -0.2555  -0.1913  -0.1902  -0.1573   0.1276   0.1294
     0.4576   0.4620   0.5567   0.5575   0.5976   0.6001   0.7418   0.7452
     0.8656   0.8680   0.9589   1.5532   1.5712   1.5717   1.6078   1.6169
     1.6602   1.6705   1.7408   1.7435   1.9475   1.9494   2.1855   2.2609
     2.2673   2.2803   2.6581   2.6678   2.7330   2.7351   2.7412   2.7429
     2.8927   2.8933   2.9494   3.0375   3.0438   3.2682   3.2741   3.4023
     3.4287   3.4316   3.7009   3.7061   3.8114   3.8338   3.8346   3.9053
     3.9318   4.0190   4.0229   4.2569   4.2578   4.3451   4.3517   4.4651
     4.4752   4.4897   4.5016   4.6591   5.1326   5.3168   5.3238   5.4041
     5.4091   5.5188   5.5813   5.5857   5.6492   5.6921   5.7008   5.7082
     5.7485   5.7508   5.7526   5.7986   6.0085   6.0556   6.0696   6.0858
     6.0895   6.0950   6.0974   6.1010   6.1038   6.1513   6.1706   6.2006

          k =-0.2500 0.2500 0.2500 (167588 PWs)   bands (ev):

   -19.1873  -7.0709  -6.8690  -6.3433  -6.3421  -5.9133  -5.5042  -5.4117
    -5.4107  -5.2154  -5.2152  -5.0983  -5.0964  -5.0188  -4.9959  -4.9230
    -4.8382  -4.8342  -4.7957  -4.7950  -4.6349  -4.6179  -4.6169  -4.6160
    -4.6094  -4.5539  -4.5537  -4.5423  -4.5414  -4.5048  -4.4932  -4.4914
    -4.4502  -4.4498  -4.4165  -4.4154  -4.3643  -4.3626  -4.3532  -4.3514
    -4.3459  -4.3328  -4.3326  -4.2926  -4.2738  -4.2732  -4.2664  -4.2660
    -4.2348  -4.1856  -4.1695  -4.1686  -4.1666  -4.1646  -4.1573  -4.1518
    -4.1516  -4.1510  -4.0874  -4.0853  -4.0378  -4.0358  -4.0242  -3.9982
    -3.9975  -3.9788  -3.9750  -3.9742  -3.9708  -3.9677  -3.9188  -3.9184
    -3.9062  -3.9051  -3.8020  -3.7997  -3.7951  -3.7933  -3.7564  -3.7497
    -3.7328  -3.7040  -3.7033  -3.6751  -3.6739  -3.6538  -3.6524  -3.6408
    -3.6386  -3.5843  -3.5837  -3.5695  -3.5496  -3.5404  -3.5373  -3.5367
    -3.5356  -3.5092  -3.5082  -3.4735  -3.4719  -3.4518  -3.4490  -3.4189
    -3.4158  -3.3991  -3.3737  -3.3705  -3.3349  -3.3329  -3.3020  -3.2926
    -3.2896  -3.2836  -3.2749  -3.2718  -3.2698  -3.2600  -3.2321  -3.2208
    -3.1809  -3.1795  -3.1726  -3.1628  -3.1621  -3.1611  -3.1370  -3.1370
    -3.1162  -3.1153  -3.1142  -3.0880  -3.0873  -3.0803  -3.0773  -3.0763
    -3.0409  -3.0375  -3.0022  -3.0012  -3.0008  -2.9982  -2.9974  -2.9183
    -2.9086  -2.9050  -2.9036  -2.9033  -2.9021  -2.8979  -2.8973  -2.8968
    -2.8965  -2.8872  -2.8794  -2.8632  -2.8599  -2.8584  -2.8577  -2.8443
    -2.8393  -2.8021  -2.8011  -2.8007  -2.7967  -2.7957  -2.7784  -2.7776
    -2.7693  -2.7692  -2.7666  -2.7079  -2.7073  -2.7019  -2.7017  -2.6968
    -2.6958  -2.6688  -2.6099  -2.6089  -2.6081  -2.6057  -2.5947  -2.5925
    -2.5879  -2.5775  -2.5763  -2.5424  -2.5391  -2.5323  -2.5308  -2.5300
    -2.5292  -2.4917  -2.4903  -2.4805  -2.4803  -2.4789  -2.4780  -2.4358
    -2.4199  -2.4154  -2.3618  -2.3610  -2.3434  -2.3417  -2.3361  -2.3355
    -2.2883  -2.2860  -2.2639  -2.2482  -2.2348  -2.2329  -2.2314  -2.2103
    -2.2096  -2.2005  -2.1835  -2.1449  -2.1428  -2.1298  -2.1284  -2.1271
    -2.1184  -2.1169  -2.1048  -2.1013  -2.1002  -2.0973  -2.0931  -2.0913
    -2.0905  -2.0804  -2.0793  -2.0616  -2.0610  -2.0591  -2.0533  -2.0505
    -2.0494  -2.0272  -2.0260  -2.0150  -2.0131  -2.0079  -2.0069  -1.9694
    -1.9365  -1.9354  -1.9002  -1.8833  -1.8828  -1.8740  -1.8708  -1.8495
    -1.8477  -1.8359  -1.8327  -1.8314  -1.8311  -1.8302  -1.8275  -1.7968
    -1.7955  -1.7952  -1.7511  -1.7495  -1.7107  -1.7091  -1.6630  -1.6620
    -1.6496  -1.6278  -1.6244  -1.6195  -1.6053  -1.6020  -1.5860  -1.5838
    -1.5815  -1.5788  -1.5777  -1.5766  -1.5757  -1.5741  -1.5544  -1.5533
    -1.5422  -1.5262  -1.5087  -1.5076  -1.4826  -1.4812  -1.4784  -1.4770
    -1.4748  -1.4703  -1.4497  -1.4491  -1.4360  -1.4331  -1.4211  -1.4117
    -1.3993  -1.3967  -1.3689  -1.3660  -1.3595  -1.3580  -1.3286  -1.3218
    -1.3157  -1.3135  -1.3062  -1.3052  -1.2844  -1.2831  -1.2743  -1.2692
    -1.2644  -1.2572  -1.2522  -1.2508  -1.2499  -1.2379  -1.2310  -1.2254
    -1.2210  -1.2176  -1.2161  -1.2037  -1.2008  -1.1951  -1.1875  -1.1549
    -1.1493  -1.1457  -1.1453  -1.1445  -1.1383  -1.1060  -1.0888  -1.0878
    -1.0873  -1.0859  -1.0833  -1.0794  -1.0777  -1.0628  -1.0603  -1.0269
    -1.0250  -1.0191  -1.0184  -0.9965  -0.9958  -0.9863  -0.9573  -0.9489
    -0.9224  -0.9206  -0.8937  -0.8932  -0.8903  -0.8892  -0.8880  -0.8838
    -0.8798  -0.8792  -0.8754  -0.8739  -0.8427  -0.8421  -0.8240  -0.8218
    -0.8193  -0.8179  -0.8164  -0.8149  -0.7983  -0.5234  -0.5116  -0.4557
    -0.4516  -0.4167  -0.2555  -0.1912  -0.1902  -0.1573   0.1276   0.1294
     0.4576   0.4620   0.5567   0.5575   0.5976   0.6001   0.7418   0.7452
     0.8656   0.8680   0.9589   1.5532   1.5712   1.5717   1.6078   1.6169
     1.6602   1.6705   1.7408   1.7435   1.9475   1.9494   2.1855   2.2609
     2.2673   2.2803   2.6581   2.6678   2.7330   2.7351   2.7412   2.7429
     2.8927   2.8933   2.9494   3.0375   3.0438   3.2682   3.2741   3.4023
     3.4288   3.4316   3.7009   3.7061   3.8114   3.8338   3.8346   3.9053
     3.9318   4.0190   4.0229   4.2569   4.2578   4.3450   4.3517   4.4651
     4.4752   4.4897   4.5016   4.6592   5.1245   5.3144   5.3203   5.4036
     5.4092   5.5209   5.5814   5.5859   5.6558   5.6937   5.7015   5.7274
     5.7505   5.7520   5.7597   5.7986   6.0318   6.0607   6.0705   6.0840
     6.0927   6.0968   6.0991   6.1038   6.1090   6.1264   6.1860   6.2151

     the Fermi energy is     0.8171 ev

!    total energy              =   -7425.29328423 Ry
     Harris-Foulkes estimate   =   -7425.29328423 Ry
     estimated scf accuracy    <          9.8E-09 Ry

     The total energy is the sum of the following terms:

     one-electron contribution =  -48702.59340956 Ry
     hartree contribution      =   24900.78055997 Ry
     xc contribution           =   -3604.22204124 Ry
     ewald contribution        =   19980.74427935 Ry
     smearing contrib. (-TS)   =      -0.00267275 Ry

     convergence has been achieved in  28 iterations

     Writing output data file 5008495.save

     init_run     :    123.28s CPU    133.59s WALL (       1 calls)
     electrons    :   7172.60s CPU   7667.93s WALL (       1 calls)

     Called by init_run:
     wfcinit      :     89.05s CPU     98.52s WALL (       1 calls)
     potinit      :      7.39s CPU      7.85s WALL (       1 calls)

     Called by electrons:
     c_bands      :   5458.16s CPU   5855.05s WALL (      29 calls)
     sum_band     :   1083.50s CPU   1161.50s WALL (      29 calls)
     v_of_rho     :    134.62s CPU    148.05s WALL (      29 calls)
     newd         :    511.30s CPU    517.72s WALL (      29 calls)
     mix_rho      :      3.92s CPU      4.31s WALL (      29 calls)
     vdW_energy   :     13.11s CPU     14.68s WALL (      29 calls)
     vdW_ffts     :     65.94s CPU     72.25s WALL (      58 calls)
     vdW_v        :     17.33s CPU     18.81s WALL (      29 calls)

     Called by c_bands:
     init_us_2    :     15.83s CPU     16.30s WALL (     354 calls)
     cegterg      :   5400.63s CPU   5796.05s WALL (     174 calls)

     Called by *egterg:
     h_psi        :   2404.67s CPU   2764.82s WALL (     866 calls)
     s_psi        :    368.00s CPU    369.89s WALL (     866 calls)
     g_psi        :      4.60s CPU      4.65s WALL (     686 calls)
     cdiaghg      :   1483.80s CPU   1489.63s WALL (     854 calls)

     Called by h_psi:
     add_vuspsi   :    370.62s CPU    372.71s WALL (     866 calls)

     General routines
     calbec       :    550.70s CPU    553.61s WALL (    1040 calls)
     fft          :    137.50s CPU    148.88s WALL (    1914 calls)
     ffts         :      1.72s CPU      2.03s WALL (      58 calls)
     fftw         :   1569.00s CPU   1904.95s WALL (  466020 calls)
     interpolate  :      5.14s CPU      6.08s WALL (      58 calls)
     davcio       :      0.00s CPU      0.29s WALL (       6 calls)

     Parallel routines
     fft_scatter  :   1089.27s CPU   1337.15s WALL (  467992 calls)

     PWSCF        :     2h 1m CPU        2h10m WALL


   This run was terminated on:   6:40:53  24Aug2015            

=------------------------------------------------------------------------------=
   JOB DONE.
=------------------------------------------------------------------------------=
