Setting SGE environment for SCC

     Program PWSCF v.5.1.2 starts on  2Jul2015 at  3: 1:11 

     This program is part of the open-source Quantum ESPRESSO suite
     for quantum simulation of materials; please cite
         "P. Giannozzi et al., J. Phys.:Condens. Matter 21 395502 (2009);
          URL http://www.quantum-espresso.org", 
     in publications or presentations arising from this work. More details at
     http://www.quantum-espresso.org/quote

     Parallel version (MPI), running on    32 processors
     R & G space division:  proc/nbgrp/npool/nimage =      32
     Reading input from bridge.H2.Au6165.d.2.0.phi.45.psi.0.in
Warning: card &IONS ignored
Warning: card / ignored
Warning: card &CELL ignored
Warning: card / ignored

     Current dimensions of program PWSCF are:
     Max number of different atomic species (ntypx) = 10
     Max number of k-points (npk) =  40000
     Max angular momentum in pseudopotentials (lmaxx) =  3

     IMPORTANT: XC functional enforced from input :
     Exchange-correlation      = VDW-DF ( 1  4  4  0 1 0)
     Any further DFT definition will be discarded
     Please, verify this is what you really want


     Subspace diagonalization in iterative solution of the eigenvalue problem:
     a serial algorithm will be used


     Parallelization info
     --------------------
     sticks:   dense  smooth     PW     G-vecs:    dense   smooth      PW
     Min         578     289     74               118518    41891    5486
     Max         579     290     75               118533    41932    5497
     Sum       18505    9265   2385              3792731  1341081  175711


     Title: 
     bridge.H2.Au6165.d.2.0.phi.45.psi.0                                        


     bravais-lattice index     =            8
     lattice parameter (alat)  =      24.1233  a.u.
     unit-cell volume          =   28076.2361 (a.u.)^3
     number of atoms/cell      =           75
     number of atomic types    =            3
     number of electrons       =       800.00
     number of Kohn-Sham states=          480
     kinetic-energy cutoff     =      50.0000  Ry
     charge density cutoff     =     400.0000  Ry
     convergence threshold     =      1.0E-08
     mixing beta               =       0.7000
     number of iterations used =            8  plain     mixing
     Exchange-correlation      = VDW-DF ( 1  4  4  0 1 0)

     celldm(1)=  24.123277  celldm(2)=   1.000000  celldm(3)=   2.000000
     celldm(4)=   0.000000  celldm(5)=   0.000000  celldm(6)=   0.000000

     crystal axes: (cart. coord. in units of alat)
               a(1) = (   1.000000   0.000000   0.000000 )  
               a(2) = (   0.000000   1.000000   0.000000 )  
               a(3) = (   0.000000   0.000000   2.000000 )  

     reciprocal axes: (cart. coord. in units 2 pi/alat)
               b(1) = (  1.000000  0.000000  0.000000 )  
               b(2) = (  0.000000  1.000000  0.000000 )  
               b(3) = (  0.000000  0.000000  0.500000 )  


     PseudoPot. # 1 for Au read from file:
     /home/scc/andrejb/qe/pseudo/Au.pbe-nd-van.UPF
     MD5 check sum: 458681b50f36d87ef23c61b04bba420a
     Pseudo is Ultrasoft + core correction, Zval = 11.0
     Generated by new atomic code, or converted to UPF format
     Using radial grid of  985 points,  3 beta functions with: 
                l(1) =   1
                l(2) =   2
                l(3) =   2
     Q(r) pseudized with  8 coefficients,  rinner =    1.100   1.100   1.100
                                                       1.100   1.100

     PseudoPot. # 2 for H  read from file:
     /home/scc/andrejb/qe/pseudo/H.pbe-van_ak.UPF
     MD5 check sum: 403db7282739603aa925980fa9b8608d
     Pseudo is Ultrasoft, Zval =  1.0
     Generated by new atomic code, or converted to UPF format
     Using radial grid of  615 points,  1 beta functions with: 
                l(1) =   0
     Q(r) pseudized with  8 coefficients,  rinner =    0.800

     PseudoPot. # 3 for O  read from file:
     /home/scc/andrejb/qe/pseudo/O.pbe-van_ak.UPF
     MD5 check sum: 4b8c549914a63cae506c6ff22b5af4fe
     Pseudo is Ultrasoft, Zval =  6.0
     Generated by new atomic code, or converted to UPF format
     Using radial grid of  737 points,  4 beta functions with: 
                l(1) =   0
                l(2) =   0
                l(3) =   1
                l(4) =   1
     Q(r) pseudized with  8 coefficients,  rinner =    0.800   0.800   0.800


     vdW kernel table read from file vdW_kernel_table
     MD5 check sum: 48e77a2e26edf626eeb0eaa751ad5cac

     atomic species   valence    mass     pseudopotential
        Au            11.00   196.96657     Au( 1.00)
        H              1.00     1.01000     H ( 1.00)
        O              6.00    16.00000     O ( 1.00)

     No symmetry found



   Cartesian axes

     site n.     atom                  positions (alat units)
         1           O   tau(   1) = (   0.2519727   0.4390712   0.7288464  )
         2           H   tau(   2) = (   0.2499161   0.4165269   0.6559909  )
         3           H   tau(   3) = (   0.2460693   0.3745090   0.7690371  )
         4           Au  tau(   4) = (   0.0000000   0.0000000   0.0000000  )
         5           Au  tau(   5) = (   0.3332217   0.0000000   0.0000000  )
         6           Au  tau(   6) = (   0.6664434   0.0000000   0.0000000  )
         7           Au  tau(   7) = (   0.1666109   0.1666109   0.0000000  )
         8           Au  tau(   8) = (   0.4998326   0.1666109   0.0000000  )
         9           Au  tau(   9) = (   0.8330542   0.1666109   0.0000000  )
        10           Au  tau(  10) = (   0.0000000   0.3332217   0.0000000  )
        11           Au  tau(  11) = (   0.3332217   0.3332217   0.0000000  )
        12           Au  tau(  12) = (   0.6664434   0.3332217   0.0000000  )
        13           Au  tau(  13) = (   0.1666109   0.4998326   0.0000000  )
        14           Au  tau(  14) = (   0.4998326   0.4998326   0.0000000  )
        15           Au  tau(  15) = (   0.8330542   0.4998326   0.0000000  )
        16           Au  tau(  16) = (   0.0000000   0.6664434   0.0000000  )
        17           Au  tau(  17) = (   0.3332217   0.6664434   0.0000000  )
        18           Au  tau(  18) = (   0.6664434   0.6664434   0.0000000  )
        19           Au  tau(  19) = (   0.1666109   0.8330542   0.0000000  )
        20           Au  tau(  20) = (   0.4998326   0.8330542   0.0000000  )
        21           Au  tau(  21) = (   0.8330542   0.8330542   0.0000000  )
        22           Au  tau(  22) = (   0.1666109   0.0000000   0.1666109  )
        23           Au  tau(  23) = (   0.4998326   0.0000000   0.1666109  )
        24           Au  tau(  24) = (   0.8330542   0.0000000   0.1666109  )
        25           Au  tau(  25) = (   0.0000000   0.1666109   0.1666109  )
        26           Au  tau(  26) = (   0.3332217   0.1666109   0.1666109  )
        27           Au  tau(  27) = (   0.6664434   0.1666109   0.1666109  )
        28           Au  tau(  28) = (   0.1666109   0.3332217   0.1666109  )
        29           Au  tau(  29) = (   0.4998326   0.3332217   0.1666109  )
        30           Au  tau(  30) = (   0.8330542   0.3332217   0.1666109  )
        31           Au  tau(  31) = (   0.0000000   0.4998326   0.1666109  )
        32           Au  tau(  32) = (   0.3332217   0.4998326   0.1666109  )
        33           Au  tau(  33) = (   0.6664434   0.4998326   0.1666109  )
        34           Au  tau(  34) = (   0.1666109   0.6664434   0.1666109  )
        35           Au  tau(  35) = (   0.4998326   0.6664434   0.1666109  )
        36           Au  tau(  36) = (   0.8330542   0.6664434   0.1666109  )
        37           Au  tau(  37) = (   0.0000000   0.8330542   0.1666109  )
        38           Au  tau(  38) = (   0.3332217   0.8330542   0.1666109  )
        39           Au  tau(  39) = (   0.6664434   0.8330542   0.1666109  )
        40           Au  tau(  40) = (  -0.0000182  -0.0000182   0.3335478  )
        41           Au  tau(  41) = (   0.3332215  -0.0000181   0.3335473  )
        42           Au  tau(  42) = (   0.6664447  -0.0000183   0.3335481  )
        43           Au  tau(  43) = (  -0.0000181   0.3332215   0.3335473  )
        44           Au  tau(  44) = (   0.3332215   0.3332215   0.3335468  )
        45           Au  tau(  45) = (   0.6664445   0.3332215   0.3335477  )
        46           Au  tau(  46) = (  -0.0000183   0.6664447   0.3335481  )
        47           Au  tau(  47) = (   0.3332215   0.6664445   0.3335477  )
        48           Au  tau(  48) = (   0.6664446   0.6664446   0.3335486  )
        49           Au  tau(  49) = (   0.1666097   0.1666097   0.3335483  )
        50           Au  tau(  50) = (   0.4998320   0.1666098   0.3335477  )
        51           Au  tau(  51) = (   0.8330732   0.1666096   0.3335480  )
        52           Au  tau(  52) = (   0.1666098   0.4998320   0.3335477  )
        53           Au  tau(  53) = (   0.4998322   0.4998322   0.3335470  )
        54           Au  tau(  54) = (   0.8330731   0.4998322   0.3335474  )
        55           Au  tau(  55) = (   0.1666096   0.8330732   0.3335480  )
        56           Au  tau(  56) = (   0.4998322   0.8330731   0.3335474  )
        57           Au  tau(  57) = (   0.8330731   0.8330731   0.3335478  )
        58           Au  tau(  58) = (   0.1666104  -0.0000111   0.4993095  )
        59           Au  tau(  59) = (   0.4998323  -0.0000112   0.4993099  )
        60           Au  tau(  60) = (   0.8330660  -0.0000111   0.4993009  )
        61           Au  tau(  61) = (  -0.0000111   0.1666104   0.4993095  )
        62           Au  tau(  62) = (   0.3332213   0.1666106   0.4993185  )
        63           Au  tau(  63) = (   0.6664437   0.1666106   0.4993187  )
        64           Au  tau(  64) = (   0.1666106   0.3332213   0.4993185  )
        65           Au  tau(  65) = (   0.4998324   0.3332216   0.4993185  )
        66           Au  tau(  66) = (   0.8330658   0.3332215   0.4993102  )
        67           Au  tau(  67) = (  -0.0000112   0.4998323   0.4993099  )
        68           Au  tau(  68) = (   0.3332216   0.4998324   0.4993185  )
        69           Au  tau(  69) = (   0.6664437   0.4998325   0.4993187  )
        70           Au  tau(  70) = (   0.1666106   0.6664437   0.4993187  )
        71           Au  tau(  71) = (   0.4998325   0.6664437   0.4993187  )
        72           Au  tau(  72) = (   0.8330658   0.6664438   0.4993102  )
        73           Au  tau(  73) = (  -0.0000111   0.8330660   0.4993009  )
        74           Au  tau(  74) = (   0.3332215   0.8330658   0.4993102  )
        75           Au  tau(  75) = (   0.6664438   0.8330658   0.4993102  )

     number of k points=     6  Marzari-Vanderbilt smearing, width (Ry)=  0.0200
                       cart. coord. in units 2pi/alat
        k(    1) = (   0.2500000   0.2500000   0.0833333), wk =   0.3333333
        k(    2) = (   0.2500000   0.2500000  -0.2500000), wk =   0.3333333
        k(    3) = (  -0.2500000  -0.2500000   0.0833333), wk =   0.3333333
        k(    4) = (  -0.2500000   0.2500000  -0.0833333), wk =   0.3333333
        k(    5) = (   0.2500000  -0.2500000  -0.0833333), wk =   0.3333333
        k(    6) = (  -0.2500000   0.2500000   0.2500000), wk =   0.3333333

     Dense  grid:  3792731 G-vectors     FFT dimensions: ( 160, 160, 320)

     Smooth grid:  1341081 G-vectors     FFT dimensions: ( 120, 120, 225)

     Largest allocated arrays     est. size (Mb)     dimensions
        Kohn-Sham Wavefunctions        38.58 Mb     (    5267,  480)
        NL pseudopotentials            76.03 Mb     (    5267,  946)
        Each V/rho on FFT grid          3.91 Mb     (  256000)
        Each G-vector array             0.90 Mb     (  118520)
        G-vector shells                 0.08 Mb     (   10286)
     Largest temporary arrays     est. size (Mb)     dimensions
        Auxiliary wavefunctions       154.31 Mb     (    5267, 1920)
        Each subspace H/S matrix       56.25 Mb     (    1920, 1920)
        Each <psi_i|beta_j> matrix      6.93 Mb     (     946,  480)
        Arrays for rho mixing          31.25 Mb     (  256000,    8)

     Initial potential from superposition of free atoms
     Check: negative starting charge=   -1.945155

     starting charge  799.16392, renormalised to  800.00000

     negative rho (up, down):  1.947E+00 0.000E+00


     ************************************************************************
     *
     * You are using vdW-DF for exchange-correlation in this calculation.
     * Please cite the following three references that made this development
     * possible:
     *
     *   M. Dion, H. Rydberg, E. Schroder, D. C. Langreth, and
     *   B. I. Lundqvist, Phys. Rev. Lett. 92, 246401 (2004).
     *
     *   T. Thonhauser, V. R. Cooper, S. Li, A. Puzder, P. Hyldgaard, and
     *   D. C. Langreth, Phys. Rev. B 76, 125112 (2007).
     *
     *   G. Roman-Perez and J. M. Soler, Phys. Rev. Lett. 103, 096102 (2009).
     *
     *
     * If you are using vdW-DF2, please also cite:
     *
     *   K. Lee, E. D. Murray, L. Kong, B. I. Lundqvist, and
     *   D. C. Langreth, Phys. Rev. B 82, 081101(R) (2010).
     *
     *
     * If you are calculating the stress with vdW-DF, please also cite:
     *
     *   R. Sabatini, E. Kucukbenli, B. Kolb, T. Thonhauser, and
     *   S. de Gironcoli, J. Phys.: Condens. Matter 24, 424209 (2012).
     *
     ************************************************************************

     Carrying out vdW-DF run using the following parameters:

     Nqs =      20    Nr_points =    1024   r_max =   100.000
     q_mesh =
               0.00001000     0.04494208     0.09755937     0.15916263
               0.23128650     0.31572767     0.41458969     0.53033537
               0.66584808     0.82450364     1.01025438     1.22772762
               1.48234092     1.78043706     2.12944203     2.53805004
               3.01644009     3.57652955     4.23227104     5.00000000

     Gradients computed in reciprocal space

     ************************************************************************


     Starting wfc are  654 randomized atomic wfcs

     total cpu time spent up to now is      171.9 secs

     Self-consistent Calculation

     iteration #  1     ecut=    50.00 Ry     beta=0.70
     Davidson diagonalization with overlap
     ethr =  1.00E-02,  avg # of iterations =  3.0

     Threshold (ethr) on eigenvalues was too large:
     Diagonalizing with lowered threshold

     Davidson diagonalization with overlap
     ethr =  4.16E-04,  avg # of iterations =  2.0

     negative rho (up, down):  1.947E+00 0.000E+00

     total cpu time spent up to now is      803.3 secs

     total energy              =   -7423.06540263 Ry
     Harris-Foulkes estimate   =   -7426.05834777 Ry
     estimated scf accuracy    <       3.69951534 Ry

     iteration #  2     ecut=    50.00 Ry     beta=0.70
     Davidson diagonalization with overlap
     ethr =  4.62E-04,  avg # of iterations = 11.3

     negative rho (up, down):  1.943E+00 0.000E+00

     total cpu time spent up to now is     1837.4 secs

     total energy              =   -7415.47126348 Ry
     Harris-Foulkes estimate   =   -7432.46208700 Ry
     estimated scf accuracy    <      87.71128913 Ry

     iteration #  3     ecut=    50.00 Ry     beta=0.70
     Davidson diagonalization with overlap
     ethr =  4.62E-04,  avg # of iterations =  6.0

     negative rho (up, down):  1.953E+00 0.000E+00

     total cpu time spent up to now is     2503.1 secs

     total energy              =   -7424.11379505 Ry
     Harris-Foulkes estimate   =   -7425.87017060 Ry
     estimated scf accuracy    <       7.33607687 Ry

     iteration #  4     ecut=    50.00 Ry     beta=0.70
     Davidson diagonalization with overlap
     ethr =  4.62E-04,  avg # of iterations =  5.2

     negative rho (up, down):  1.956E+00 0.000E+00

     total cpu time spent up to now is     2862.2 secs

     total energy              =   -7424.89257747 Ry
     Harris-Foulkes estimate   =   -7425.62591139 Ry
     estimated scf accuracy    <       3.63861217 Ry

     iteration #  5     ecut=    50.00 Ry     beta=0.70
     Davidson diagonalization with overlap
     ethr =  4.55E-04,  avg # of iterations =  6.5

     negative rho (up, down):  1.963E+00 0.000E+00

     total cpu time spent up to now is     3240.6 secs

     total energy              =   -7425.04677941 Ry
     Harris-Foulkes estimate   =   -7425.59348076 Ry
     estimated scf accuracy    <       4.27027156 Ry

     iteration #  6     ecut=    50.00 Ry     beta=0.70
     Davidson diagonalization with overlap
     ethr =  4.55E-04,  avg # of iterations =  3.8

     negative rho (up, down):  1.967E+00 0.000E+00

     total cpu time spent up to now is     3568.5 secs

     total energy              =   -7425.27398712 Ry
     Harris-Foulkes estimate   =   -7425.33068919 Ry
     estimated scf accuracy    <       0.20505852 Ry

     iteration #  7     ecut=    50.00 Ry     beta=0.70
     Davidson diagonalization with overlap
     ethr =  2.56E-05,  avg # of iterations =  6.8

     negative rho (up, down):  1.970E+00 0.000E+00

     total cpu time spent up to now is     3990.2 secs

     total energy              =   -7425.27829692 Ry
     Harris-Foulkes estimate   =   -7425.32536227 Ry
     estimated scf accuracy    <       0.24650976 Ry

     iteration #  8     ecut=    50.00 Ry     beta=0.70
     Davidson diagonalization with overlap
     ethr =  2.56E-05,  avg # of iterations =  3.0

     negative rho (up, down):  1.971E+00 0.000E+00

     total cpu time spent up to now is     4320.8 secs

     total energy              =   -7425.28698499 Ry
     Harris-Foulkes estimate   =   -7425.30634556 Ry
     estimated scf accuracy    <       0.08368749 Ry

     iteration #  9     ecut=    50.00 Ry     beta=0.70
     Davidson diagonalization with overlap
     ethr =  1.05E-05,  avg # of iterations =  9.2

     negative rho (up, down):  1.972E+00 0.000E+00

     total cpu time spent up to now is     4731.4 secs

     total energy              =   -7425.28755523 Ry
     Harris-Foulkes estimate   =   -7425.29808562 Ry
     estimated scf accuracy    <       0.03712973 Ry

     iteration # 10     ecut=    50.00 Ry     beta=0.70
     Davidson diagonalization with overlap
     ethr =  4.64E-06,  avg # of iterations =  5.8

     negative rho (up, down):  1.973E+00 0.000E+00

     total cpu time spent up to now is     5069.6 secs

     total energy              =   -7425.28843839 Ry
     Harris-Foulkes estimate   =   -7425.29192628 Ry
     estimated scf accuracy    <       0.01081615 Ry

     iteration # 11     ecut=    50.00 Ry     beta=0.70
     Davidson diagonalization with overlap
     ethr =  1.35E-06,  avg # of iterations =  8.5

     negative rho (up, down):  1.974E+00 0.000E+00

     total cpu time spent up to now is     5472.9 secs

     total energy              =   -7425.28867341 Ry
     Harris-Foulkes estimate   =   -7425.29005061 Ry
     estimated scf accuracy    <       0.00467751 Ry

     iteration # 12     ecut=    50.00 Ry     beta=0.70
     Davidson diagonalization with overlap
     ethr =  5.85E-07,  avg # of iterations =  2.7

     negative rho (up, down):  1.974E+00 0.000E+00

     total cpu time spent up to now is     5779.8 secs

     total energy              =   -7425.28814623 Ry
     Harris-Foulkes estimate   =   -7425.28920448 Ry
     estimated scf accuracy    <       0.00166171 Ry

     iteration # 13     ecut=    50.00 Ry     beta=0.70
     Davidson diagonalization with overlap
     ethr =  2.08E-07,  avg # of iterations =  5.7

     negative rho (up, down):  1.974E+00 0.000E+00

     total cpu time spent up to now is     6300.4 secs

     total energy              =   -7425.28733701 Ry
     Harris-Foulkes estimate   =   -7425.29016293 Ry
     estimated scf accuracy    <       0.01418141 Ry

     iteration # 14     ecut=    50.00 Ry     beta=0.70
     Davidson diagonalization with overlap
     ethr =  2.08E-07,  avg # of iterations =  3.0

     negative rho (up, down):  1.974E+00 0.000E+00

     total cpu time spent up to now is     6702.9 secs

     total energy              =   -7425.28858373 Ry
     Harris-Foulkes estimate   =   -7425.28886154 Ry
     estimated scf accuracy    <       0.00114446 Ry

     iteration # 15     ecut=    50.00 Ry     beta=0.70
     Davidson diagonalization with overlap
     ethr =  1.43E-07,  avg # of iterations =  2.0

     negative rho (up, down):  1.974E+00 0.000E+00

     total cpu time spent up to now is     6984.0 secs

     total energy              =   -7425.28860471 Ry
     Harris-Foulkes estimate   =   -7425.28883358 Ry
     estimated scf accuracy    <       0.00128747 Ry

     iteration # 16     ecut=    50.00 Ry     beta=0.70
     Davidson diagonalization with overlap
     ethr =  1.43E-07,  avg # of iterations =  1.0

     negative rho (up, down):  1.974E+00 0.000E+00

     total cpu time spent up to now is     7269.5 secs

     total energy              =   -7425.28866069 Ry
     Harris-Foulkes estimate   =   -7425.28884466 Ry
     estimated scf accuracy    <       0.00142364 Ry

     iteration # 17     ecut=    50.00 Ry     beta=0.70
     Davidson diagonalization with overlap
     ethr =  1.43E-07,  avg # of iterations =  1.0

     negative rho (up, down):  1.974E+00 0.000E+00

     total cpu time spent up to now is     7553.8 secs

     total energy              =   -7425.28873098 Ry
     Harris-Foulkes estimate   =   -7425.28876873 Ry
     estimated scf accuracy    <       0.00015637 Ry

     iteration # 18     ecut=    50.00 Ry     beta=0.70
     Davidson diagonalization with overlap
     ethr =  1.95E-08,  avg # of iterations =  2.0

     negative rho (up, down):  1.974E+00 0.000E+00

     total cpu time spent up to now is     7837.0 secs

     total energy              =   -7425.28874875 Ry
     Harris-Foulkes estimate   =   -7425.28875643 Ry
     estimated scf accuracy    <       0.00003239 Ry

     iteration # 19     ecut=    50.00 Ry     beta=0.70
     Davidson diagonalization with overlap
     ethr =  4.05E-09,  avg # of iterations =  2.0

     negative rho (up, down):  1.974E+00 0.000E+00

     total cpu time spent up to now is     8132.6 secs

     total energy              =   -7425.28875145 Ry
     Harris-Foulkes estimate   =   -7425.28875495 Ry
     estimated scf accuracy    <       0.00001381 Ry

     iteration # 20     ecut=    50.00 Ry     beta=0.70
     Davidson diagonalization with overlap
     ethr =  1.73E-09,  avg # of iterations =  2.0

     negative rho (up, down):  1.974E+00 0.000E+00

     total cpu time spent up to now is     8421.0 secs

     total energy              =   -7425.28875289 Ry
     Harris-Foulkes estimate   =   -7425.28875411 Ry
     estimated scf accuracy    <       0.00000427 Ry

     iteration # 21     ecut=    50.00 Ry     beta=0.70
     Davidson diagonalization with overlap
     ethr =  5.34E-10,  avg # of iterations =  2.0

     negative rho (up, down):  1.974E+00 0.000E+00

     total cpu time spent up to now is     8730.2 secs

     total energy              =   -7425.28875353 Ry
     Harris-Foulkes estimate   =   -7425.28875366 Ry
     estimated scf accuracy    <       0.00000057 Ry

     iteration # 22     ecut=    50.00 Ry     beta=0.70
     Davidson diagonalization with overlap
     ethr =  7.09E-11,  avg # of iterations =  3.0

     negative rho (up, down):  1.974E+00 0.000E+00

     total cpu time spent up to now is     9100.1 secs

     total energy              =   -7425.28875366 Ry
     Harris-Foulkes estimate   =   -7425.28875373 Ry
     estimated scf accuracy    <       0.00000035 Ry

     iteration # 23     ecut=    50.00 Ry     beta=0.70
     Davidson diagonalization with overlap
     ethr =  4.36E-11,  avg # of iterations =  3.0

     negative rho (up, down):  1.974E+00 0.000E+00

     total cpu time spent up to now is     9426.4 secs

     total energy              =   -7425.28875368 Ry
     Harris-Foulkes estimate   =   -7425.28875374 Ry
     estimated scf accuracy    <       0.00000021 Ry

     iteration # 24     ecut=    50.00 Ry     beta=0.70
     Davidson diagonalization with overlap
     ethr =  2.58E-11,  avg # of iterations =  2.0

     negative rho (up, down):  1.974E+00 0.000E+00

     total cpu time spent up to now is     9730.8 secs

     total energy              =   -7425.28875372 Ry
     Harris-Foulkes estimate   =   -7425.28875373 Ry
     estimated scf accuracy    <       0.00000015 Ry

     iteration # 25     ecut=    50.00 Ry     beta=0.70
     Davidson diagonalization with overlap
     ethr =  1.88E-11,  avg # of iterations =  2.0

     negative rho (up, down):  1.974E+00 0.000E+00

     total cpu time spent up to now is    10016.1 secs

     total energy              =   -7425.28875374 Ry
     Harris-Foulkes estimate   =   -7425.28875374 Ry
     estimated scf accuracy    <       0.00000005 Ry

     iteration # 26     ecut=    50.00 Ry     beta=0.70
     Davidson diagonalization with overlap
     ethr =  6.33E-12,  avg # of iterations =  2.0

     negative rho (up, down):  1.974E+00 0.000E+00

     total cpu time spent up to now is    10310.1 secs

     total energy              =   -7425.28875375 Ry
     Harris-Foulkes estimate   =   -7425.28875375 Ry
     estimated scf accuracy    <       0.00000008 Ry

     iteration # 27     ecut=    50.00 Ry     beta=0.70
     Davidson diagonalization with overlap
     ethr =  6.33E-12,  avg # of iterations =  2.0

     negative rho (up, down):  1.974E+00 0.000E+00

     total cpu time spent up to now is    10601.5 secs

     total energy              =   -7425.28875375 Ry
     Harris-Foulkes estimate   =   -7425.28875376 Ry
     estimated scf accuracy    <       0.00000003 Ry

     iteration # 28     ecut=    50.00 Ry     beta=0.70
     Davidson diagonalization with overlap
     ethr =  3.54E-12,  avg # of iterations =  2.0

     negative rho (up, down):  1.974E+00 0.000E+00

     total cpu time spent up to now is    10883.3 secs

     total energy              =   -7425.28875375 Ry
     Harris-Foulkes estimate   =   -7425.28875375 Ry
     estimated scf accuracy    <       0.00000003 Ry

     iteration # 29     ecut=    50.00 Ry     beta=0.70
     Davidson diagonalization with overlap
     ethr =  3.54E-12,  avg # of iterations =  2.0

     negative rho (up, down):  1.974E+00 0.000E+00

     total cpu time spent up to now is    11174.3 secs

     End of self-consistent calculation

          k = 0.2500 0.2500 0.0833 (167653 PWs)   bands (ev):

   -19.2482  -7.2050  -6.8606  -6.3350  -6.3341  -5.9060  -5.4962  -5.4048
    -5.4029  -5.2081  -5.2072  -5.0910  -5.0885  -5.0114  -4.9886  -4.9156
    -4.8307  -4.8268  -4.7885  -4.7874  -4.6276  -4.6107  -4.6099  -4.6082
    -4.6019  -4.5465  -4.5462  -4.5354  -4.5335  -4.4976  -4.4865  -4.4836
    -4.4430  -4.4423  -4.4094  -4.4078  -4.3595  -4.3548  -4.3460  -4.3442
    -4.3384  -4.3255  -4.3251  -4.2849  -4.2665  -4.2656  -4.2590  -4.2584
    -4.2270  -4.1785  -4.1645  -4.1622  -4.1608  -4.1567  -4.1499  -4.1451
    -4.1442  -4.1432  -4.0843  -4.0775  -4.0316  -4.0278  -4.0167  -3.9936
    -3.9900  -3.9738  -3.9677  -3.9668  -3.9631  -3.9606  -3.9114  -3.9108
    -3.8991  -3.8973  -3.7958  -3.7917  -3.7903  -3.7852  -3.7490  -3.7449
    -3.7252  -3.6967  -3.6960  -3.6680  -3.6659  -3.6501  -3.6451  -3.6336
    -3.6306  -3.5788  -3.5760  -3.5613  -3.5434  -3.5355  -3.5320  -3.5302
    -3.5289  -3.5072  -3.5013  -3.4685  -3.4648  -3.4497  -3.4442  -3.4174
    -3.4102  -3.3972  -3.3734  -3.3634  -3.3572  -3.3268  -3.3250  -3.2875
    -3.2820  -3.2816  -3.2675  -3.2645  -3.2623  -3.2567  -3.2265  -3.2131
    -3.1741  -3.1735  -3.1649  -3.1565  -3.1551  -3.1535  -3.1298  -3.1296
    -3.1103  -3.1081  -3.1063  -3.0808  -3.0799  -3.0732  -3.0710  -3.0680
    -3.0338  -3.0316  -2.9958  -2.9936  -2.9927  -2.9915  -2.9899  -2.9107
    -2.9012  -2.9000  -2.8973  -2.8956  -2.8945  -2.8923  -2.8898  -2.8890
    -2.8888  -2.8796  -2.8719  -2.8562  -2.8526  -2.8512  -2.8507  -2.8369
    -2.8328  -2.7953  -2.7946  -2.7933  -2.7887  -2.7878  -2.7714  -2.7699
    -2.7627  -2.7615  -2.7592  -2.7012  -2.7004  -2.6948  -2.6943  -2.6903
    -2.6886  -2.6612  -2.6030  -2.6021  -2.6014  -2.5982  -2.5872  -2.5859
    -2.5809  -2.5717  -2.5689  -2.5351  -2.5313  -2.5267  -2.5254  -2.5218
    -2.5211  -2.4845  -2.4830  -2.4738  -2.4727  -2.4721  -2.4703  -2.4282
    -2.4140  -2.4068  -2.3560  -2.3533  -2.3363  -2.3351  -2.3293  -2.3273
    -2.2819  -2.2785  -2.2568  -2.2434  -2.2282  -2.2264  -2.2239  -2.2044
    -2.2022  -2.1938  -2.1771  -2.1451  -2.1362  -2.1238  -2.1201  -2.1191
    -2.1132  -2.1094  -2.1035  -2.0948  -2.0940  -2.0897  -2.0865  -2.0837
    -2.0824  -2.0749  -2.0711  -2.0549  -2.0536  -2.0523  -2.0467  -2.0438
    -2.0415  -2.0213  -2.0176  -2.0080  -2.0067  -2.0002  -1.9993  -1.9622
    -1.9302  -1.9275  -1.8933  -1.8774  -1.8756  -1.8701  -1.8626  -1.8423
    -1.8407  -1.8315  -1.8274  -1.8254  -1.8243  -1.8233  -1.8193  -1.7906
    -1.7881  -1.7877  -1.7438  -1.7420  -1.7067  -1.7011  -1.6566  -1.6549
    -1.6431  -1.6219  -1.6195  -1.6124  -1.5992  -1.5954  -1.5836  -1.5753
    -1.5749  -1.5726  -1.5709  -1.5691  -1.5688  -1.5679  -1.5484  -1.5457
    -1.5370  -1.5197  -1.5020  -1.5006  -1.4770  -1.4733  -1.4720  -1.4710
    -1.4689  -1.4639  -1.4487  -1.4416  -1.4307  -1.4254  -1.4149  -1.4054
    -1.3986  -1.3884  -1.3615  -1.3587  -1.3550  -1.3499  -1.3340  -1.3178
    -1.3111  -1.3057  -1.3042  -1.2985  -1.2848  -1.2757  -1.2748  -1.2650
    -1.2563  -1.2526  -1.2474  -1.2426  -1.2423  -1.2299  -1.2276  -1.2187
    -1.2167  -1.2106  -1.2090  -1.1964  -1.1942  -1.1871  -1.1750  -1.1471
    -1.1441  -1.1396  -1.1385  -1.1371  -1.1281  -1.0992  -1.0826  -1.0801
    -1.0794  -1.0787  -1.0748  -1.0712  -1.0663  -1.0564  -1.0549  -1.0181
    -1.0160  -1.0117  -1.0106  -0.9897  -0.9885  -0.9791  -0.9498  -0.9416
    -0.9163  -0.9128  -0.8870  -0.8865  -0.8827  -0.8820  -0.8804  -0.8761
    -0.8722  -0.8720  -0.8692  -0.8662  -0.8362  -0.8344  -0.8161  -0.8134
    -0.8122  -0.8100  -0.8090  -0.8052  -0.7910  -0.5185  -0.5039  -0.4460
    -0.4433  -0.4096  -0.2503  -0.1859  -0.1824  -0.1471   0.1359   0.1370
     0.4671   0.4700   0.5622   0.5652   0.6025   0.6075   0.7501   0.7537
     0.8728   0.8760   0.9692   1.5613   1.5779   1.5800   1.6179   1.6242
     1.6709   1.6783   1.7478   1.7519   1.9524   1.9574   2.1966   2.2686
     2.2752   2.2872   2.6695   2.6760   2.7394   2.7420   2.7475   2.7508
     2.8977   2.9016   2.9603   3.0425   3.0504   3.2745   3.2766   3.4091
     3.4349   3.4404   3.7079   3.7131   3.8273   3.8398   3.8425   3.9170
     3.9388   4.0207   4.0307   4.2589   4.2665   4.3555   4.3602   4.4780
     4.4795   4.5045   4.5112   4.6741   5.1720   5.3233   5.3386   5.4046
     5.4124   5.5340   5.5842   5.5930   5.6541   5.7022   5.7096   5.7139
     5.7421   5.7510   5.7609   5.8008   6.0170   6.0649   6.0821   6.0862
     6.0971   6.1026   6.1055   6.1115   6.1119   6.1523   6.1782   6.2049

          k = 0.2500 0.2500-0.2500 (167588 PWs)   bands (ev):

   -19.2482  -7.2050  -6.8606  -6.3350  -6.3341  -5.9060  -5.4962  -5.4048
    -5.4029  -5.2081  -5.2072  -5.0910  -5.0885  -5.0114  -4.9886  -4.9156
    -4.8307  -4.8268  -4.7885  -4.7874  -4.6276  -4.6107  -4.6099  -4.6082
    -4.6019  -4.5465  -4.5462  -4.5354  -4.5335  -4.4976  -4.4865  -4.4836
    -4.4430  -4.4423  -4.4094  -4.4078  -4.3595  -4.3547  -4.3460  -4.3442
    -4.3384  -4.3255  -4.3251  -4.2849  -4.2665  -4.2656  -4.2590  -4.2584
    -4.2270  -4.1785  -4.1645  -4.1622  -4.1607  -4.1567  -4.1499  -4.1451
    -4.1442  -4.1432  -4.0843  -4.0775  -4.0316  -4.0278  -4.0167  -3.9936
    -3.9900  -3.9738  -3.9677  -3.9668  -3.9631  -3.9606  -3.9114  -3.9108
    -3.8991  -3.8973  -3.7958  -3.7917  -3.7903  -3.7852  -3.7490  -3.7449
    -3.7252  -3.6967  -3.6960  -3.6680  -3.6659  -3.6501  -3.6451  -3.6336
    -3.6306  -3.5788  -3.5760  -3.5613  -3.5434  -3.5355  -3.5320  -3.5302
    -3.5289  -3.5072  -3.5013  -3.4685  -3.4648  -3.4497  -3.4442  -3.4174
    -3.4102  -3.3972  -3.3734  -3.3634  -3.3572  -3.3268  -3.3250  -3.2875
    -3.2820  -3.2816  -3.2675  -3.2645  -3.2622  -3.2567  -3.2265  -3.2131
    -3.1741  -3.1735  -3.1649  -3.1565  -3.1551  -3.1535  -3.1298  -3.1296
    -3.1103  -3.1081  -3.1063  -3.0808  -3.0799  -3.0732  -3.0710  -3.0680
    -3.0338  -3.0316  -2.9958  -2.9936  -2.9927  -2.9915  -2.9899  -2.9107
    -2.9012  -2.8999  -2.8973  -2.8956  -2.8945  -2.8923  -2.8898  -2.8890
    -2.8888  -2.8796  -2.8719  -2.8562  -2.8526  -2.8512  -2.8507  -2.8369
    -2.8328  -2.7953  -2.7946  -2.7933  -2.7887  -2.7878  -2.7714  -2.7699
    -2.7627  -2.7615  -2.7592  -2.7012  -2.7004  -2.6948  -2.6943  -2.6903
    -2.6886  -2.6612  -2.6030  -2.6021  -2.6013  -2.5982  -2.5872  -2.5859
    -2.5809  -2.5717  -2.5689  -2.5351  -2.5312  -2.5267  -2.5254  -2.5218
    -2.5211  -2.4845  -2.4830  -2.4738  -2.4727  -2.4721  -2.4703  -2.4282
    -2.4140  -2.4068  -2.3560  -2.3533  -2.3363  -2.3351  -2.3293  -2.3273
    -2.2819  -2.2785  -2.2568  -2.2434  -2.2282  -2.2264  -2.2239  -2.2044
    -2.2022  -2.1938  -2.1771  -2.1451  -2.1362  -2.1238  -2.1201  -2.1191
    -2.1132  -2.1093  -2.1035  -2.0948  -2.0940  -2.0897  -2.0865  -2.0837
    -2.0824  -2.0749  -2.0711  -2.0549  -2.0536  -2.0523  -2.0468  -2.0438
    -2.0415  -2.0214  -2.0176  -2.0080  -2.0067  -2.0002  -1.9992  -1.9622
    -1.9302  -1.9275  -1.8933  -1.8774  -1.8756  -1.8700  -1.8626  -1.8422
    -1.8407  -1.8315  -1.8273  -1.8254  -1.8243  -1.8233  -1.8193  -1.7906
    -1.7881  -1.7877  -1.7438  -1.7420  -1.7067  -1.7011  -1.6566  -1.6549
    -1.6431  -1.6219  -1.6195  -1.6124  -1.5993  -1.5954  -1.5836  -1.5753
    -1.5749  -1.5726  -1.5709  -1.5691  -1.5688  -1.5678  -1.5484  -1.5457
    -1.5370  -1.5197  -1.5020  -1.5006  -1.4770  -1.4733  -1.4720  -1.4710
    -1.4688  -1.4639  -1.4487  -1.4416  -1.4307  -1.4254  -1.4149  -1.4054
    -1.3986  -1.3884  -1.3615  -1.3587  -1.3550  -1.3499  -1.3340  -1.3178
    -1.3111  -1.3057  -1.3042  -1.2985  -1.2848  -1.2757  -1.2748  -1.2650
    -1.2563  -1.2526  -1.2474  -1.2426  -1.2423  -1.2299  -1.2276  -1.2187
    -1.2167  -1.2106  -1.2090  -1.1964  -1.1942  -1.1871  -1.1750  -1.1471
    -1.1441  -1.1396  -1.1385  -1.1371  -1.1281  -1.0992  -1.0826  -1.0801
    -1.0794  -1.0787  -1.0748  -1.0712  -1.0663  -1.0564  -1.0549  -1.0181
    -1.0160  -1.0117  -1.0106  -0.9897  -0.9885  -0.9791  -0.9498  -0.9416
    -0.9163  -0.9128  -0.8870  -0.8865  -0.8827  -0.8820  -0.8804  -0.8761
    -0.8722  -0.8720  -0.8692  -0.8662  -0.8362  -0.8344  -0.8161  -0.8134
    -0.8122  -0.8100  -0.8090  -0.8052  -0.7909  -0.5185  -0.5039  -0.4460
    -0.4433  -0.4096  -0.2503  -0.1859  -0.1824  -0.1471   0.1359   0.1370
     0.4671   0.4700   0.5622   0.5652   0.6025   0.6075   0.7501   0.7537
     0.8728   0.8760   0.9692   1.5613   1.5779   1.5800   1.6179   1.6242
     1.6709   1.6783   1.7478   1.7519   1.9524   1.9575   2.1966   2.2686
     2.2752   2.2872   2.6695   2.6760   2.7394   2.7420   2.7475   2.7508
     2.8977   2.9016   2.9603   3.0425   3.0504   3.2745   3.2766   3.4091
     3.4349   3.4404   3.7079   3.7131   3.8273   3.8398   3.8425   3.9171
     3.9388   4.0207   4.0307   4.2589   4.2665   4.3555   4.3602   4.4780
     4.4795   4.5045   4.5112   4.6742   5.1628   5.3217   5.3337   5.4044
     5.4120   5.5369   5.5850   5.5932   5.6623   5.7067   5.7092   5.7292
     5.7420   5.7605   5.7646   5.8010   6.0393   6.0661   6.0828   6.0869
     6.0922   6.1034   6.1100   6.1113   6.1138   6.1390   6.1925   6.2255

          k =-0.2500-0.2500 0.0833 (167653 PWs)   bands (ev):

   -19.2482  -7.2050  -6.8606  -6.3350  -6.3341  -5.9060  -5.4962  -5.4048
    -5.4029  -5.2081  -5.2072  -5.0910  -5.0885  -5.0114  -4.9886  -4.9156
    -4.8307  -4.8268  -4.7885  -4.7874  -4.6276  -4.6107  -4.6099  -4.6082
    -4.6019  -4.5465  -4.5462  -4.5354  -4.5335  -4.4976  -4.4865  -4.4836
    -4.4430  -4.4423  -4.4094  -4.4078  -4.3595  -4.3548  -4.3460  -4.3442
    -4.3384  -4.3255  -4.3251  -4.2849  -4.2665  -4.2656  -4.2590  -4.2584
    -4.2270  -4.1785  -4.1645  -4.1622  -4.1608  -4.1567  -4.1499  -4.1451
    -4.1442  -4.1432  -4.0843  -4.0775  -4.0316  -4.0278  -4.0167  -3.9936
    -3.9900  -3.9738  -3.9677  -3.9668  -3.9631  -3.9606  -3.9114  -3.9108
    -3.8991  -3.8973  -3.7958  -3.7917  -3.7903  -3.7852  -3.7490  -3.7449
    -3.7252  -3.6967  -3.6960  -3.6680  -3.6659  -3.6501  -3.6451  -3.6336
    -3.6306  -3.5788  -3.5760  -3.5613  -3.5434  -3.5355  -3.5320  -3.5302
    -3.5289  -3.5072  -3.5013  -3.4685  -3.4648  -3.4497  -3.4442  -3.4174
    -3.4102  -3.3972  -3.3734  -3.3634  -3.3572  -3.3268  -3.3250  -3.2875
    -3.2820  -3.2816  -3.2675  -3.2645  -3.2623  -3.2567  -3.2265  -3.2131
    -3.1741  -3.1735  -3.1649  -3.1565  -3.1551  -3.1535  -3.1298  -3.1296
    -3.1103  -3.1081  -3.1063  -3.0808  -3.0799  -3.0732  -3.0710  -3.0680
    -3.0338  -3.0316  -2.9958  -2.9936  -2.9927  -2.9915  -2.9899  -2.9107
    -2.9012  -2.9000  -2.8973  -2.8956  -2.8945  -2.8923  -2.8898  -2.8890
    -2.8888  -2.8796  -2.8719  -2.8562  -2.8526  -2.8512  -2.8507  -2.8369
    -2.8328  -2.7953  -2.7946  -2.7933  -2.7887  -2.7878  -2.7714  -2.7699
    -2.7627  -2.7615  -2.7592  -2.7012  -2.7004  -2.6948  -2.6943  -2.6903
    -2.6886  -2.6612  -2.6030  -2.6021  -2.6014  -2.5982  -2.5872  -2.5859
    -2.5809  -2.5717  -2.5689  -2.5351  -2.5313  -2.5267  -2.5254  -2.5218
    -2.5211  -2.4845  -2.4830  -2.4738  -2.4727  -2.4721  -2.4703  -2.4282
    -2.4140  -2.4068  -2.3560  -2.3533  -2.3363  -2.3351  -2.3293  -2.3273
    -2.2819  -2.2785  -2.2568  -2.2434  -2.2282  -2.2264  -2.2239  -2.2044
    -2.2022  -2.1938  -2.1771  -2.1451  -2.1362  -2.1238  -2.1201  -2.1191
    -2.1132  -2.1094  -2.1035  -2.0948  -2.0940  -2.0897  -2.0865  -2.0837
    -2.0824  -2.0749  -2.0711  -2.0549  -2.0536  -2.0523  -2.0467  -2.0438
    -2.0415  -2.0213  -2.0176  -2.0080  -2.0067  -2.0002  -1.9993  -1.9622
    -1.9302  -1.9275  -1.8933  -1.8774  -1.8756  -1.8701  -1.8626  -1.8423
    -1.8407  -1.8315  -1.8274  -1.8254  -1.8243  -1.8233  -1.8193  -1.7906
    -1.7881  -1.7877  -1.7438  -1.7420  -1.7067  -1.7011  -1.6566  -1.6549
    -1.6431  -1.6219  -1.6195  -1.6124  -1.5992  -1.5954  -1.5836  -1.5753
    -1.5749  -1.5726  -1.5709  -1.5691  -1.5688  -1.5679  -1.5484  -1.5457
    -1.5370  -1.5197  -1.5020  -1.5006  -1.4770  -1.4733  -1.4720  -1.4710
    -1.4689  -1.4639  -1.4487  -1.4416  -1.4307  -1.4254  -1.4149  -1.4054
    -1.3986  -1.3884  -1.3615  -1.3587  -1.3550  -1.3499  -1.3340  -1.3178
    -1.3111  -1.3057  -1.3042  -1.2985  -1.2848  -1.2757  -1.2748  -1.2650
    -1.2563  -1.2526  -1.2474  -1.2426  -1.2423  -1.2299  -1.2276  -1.2187
    -1.2167  -1.2106  -1.2090  -1.1964  -1.1942  -1.1871  -1.1750  -1.1471
    -1.1441  -1.1396  -1.1385  -1.1371  -1.1281  -1.0992  -1.0826  -1.0801
    -1.0794  -1.0787  -1.0748  -1.0712  -1.0663  -1.0564  -1.0549  -1.0181
    -1.0160  -1.0117  -1.0106  -0.9897  -0.9885  -0.9791  -0.9498  -0.9416
    -0.9163  -0.9128  -0.8870  -0.8865  -0.8827  -0.8820  -0.8804  -0.8761
    -0.8722  -0.8720  -0.8692  -0.8662  -0.8362  -0.8344  -0.8161  -0.8134
    -0.8122  -0.8100  -0.8090  -0.8052  -0.7910  -0.5185  -0.5039  -0.4460
    -0.4433  -0.4096  -0.2503  -0.1859  -0.1824  -0.1471   0.1359   0.1370
     0.4671   0.4700   0.5622   0.5652   0.6025   0.6075   0.7501   0.7537
     0.8728   0.8760   0.9692   1.5613   1.5779   1.5800   1.6179   1.6242
     1.6709   1.6783   1.7478   1.7519   1.9524   1.9574   2.1966   2.2686
     2.2752   2.2872   2.6695   2.6760   2.7394   2.7420   2.7475   2.7508
     2.8977   2.9016   2.9603   3.0425   3.0504   3.2745   3.2766   3.4091
     3.4349   3.4404   3.7079   3.7131   3.8273   3.8398   3.8425   3.9170
     3.9388   4.0207   4.0307   4.2589   4.2665   4.3555   4.3602   4.4780
     4.4795   4.5045   4.5112   4.6741   5.1716   5.3231   5.3397   5.4046
     5.4124   5.5311   5.5841   5.5931   5.6553   5.7032   5.7097   5.7154
     5.7421   5.7517   5.7609   5.8008   6.0185   6.0652   6.0824   6.0861
     6.0968   6.1018   6.1053   6.1114   6.1121   6.1527   6.1728   6.2012

          k =-0.2500 0.2500-0.0833 (167653 PWs)   bands (ev):

   -19.2482  -7.2051  -6.8604  -6.3359  -6.3336  -5.9055  -5.4962  -5.4044
    -5.4029  -5.2080  -5.2078  -5.0913  -5.0883  -5.0113  -4.9884  -4.9155
    -4.8308  -4.8267  -4.7886  -4.7874  -4.6280  -4.6106  -4.6095  -4.6084
    -4.6019  -4.5467  -4.5463  -4.5351  -4.5339  -4.4973  -4.4864  -4.4838
    -4.4429  -4.4423  -4.4091  -4.4081  -4.3575  -4.3552  -4.3468  -4.3440
    -4.3385  -4.3254  -4.3251  -4.2864  -4.2667  -4.2658  -4.2589  -4.2584
    -4.2282  -4.1796  -4.1623  -4.1612  -4.1606  -4.1571  -4.1499  -4.1446
    -4.1442  -4.1434  -4.0809  -4.0780  -4.0319  -4.0285  -4.0173  -3.9913
    -3.9902  -3.9725  -3.9674  -3.9667  -3.9639  -3.9606  -3.9117  -3.9109
    -3.8995  -3.8977  -3.7971  -3.7924  -3.7885  -3.7859  -3.7490  -3.7450
    -3.7253  -3.6980  -3.6962  -3.6683  -3.6662  -3.6474  -3.6452  -3.6359
    -3.6314  -3.5776  -3.5763  -3.5708  -3.5425  -3.5359  -3.5303  -3.5294
    -3.5284  -3.5028  -3.5011  -3.4710  -3.4646  -3.4485  -3.4420  -3.4200
    -3.4085  -3.3972  -3.3813  -3.3634  -3.3471  -3.3258  -3.3227  -3.2892
    -3.2820  -3.2806  -3.2677  -3.2659  -3.2623  -3.2613  -3.2265  -3.2133
    -3.1739  -3.1726  -3.1652  -3.1558  -3.1548  -3.1539  -3.1302  -3.1300
    -3.1095  -3.1082  -3.1069  -3.0809  -3.0797  -3.0731  -3.0700  -3.0686
    -3.0335  -3.0308  -2.9955  -2.9940  -2.9934  -2.9911  -2.9902  -2.9108
    -2.9015  -2.8985  -2.8969  -2.8961  -2.8948  -2.8907  -2.8898  -2.8893
    -2.8889  -2.8798  -2.8719  -2.8568  -2.8526  -2.8510  -2.8490  -2.8370
    -2.8313  -2.7956  -2.7940  -2.7936  -2.7894  -2.7882  -2.7712  -2.7702
    -2.7624  -2.7618  -2.7590  -2.7014  -2.7003  -2.6947  -2.6944  -2.6896
    -2.6876  -2.6621  -2.6033  -2.6020  -2.6011  -2.5981  -2.5875  -2.5853
    -2.5810  -2.5709  -2.5690  -2.5382  -2.5323  -2.5257  -2.5239  -2.5229
    -2.5220  -2.4858  -2.4838  -2.4735  -2.4732  -2.4718  -2.4707  -2.4284
    -2.4123  -2.4090  -2.3548  -2.3537  -2.3370  -2.3343  -2.3294  -2.3278
    -2.2821  -2.2789  -2.2572  -2.2425  -2.2296  -2.2262  -2.2239  -2.2035
    -2.2021  -2.1937  -2.1763  -2.1400  -2.1361  -2.1239  -2.1214  -2.1194
    -2.1120  -2.1100  -2.1006  -2.0939  -2.0929  -2.0905  -2.0867  -2.0839
    -2.0832  -2.0742  -2.0727  -2.0547  -2.0538  -2.0520  -2.0463  -2.0437
    -2.0419  -2.0212  -2.0193  -2.0082  -2.0065  -2.0004  -1.9993  -1.9623
    -1.9301  -1.9288  -1.8933  -1.8768  -1.8761  -1.8672  -1.8636  -1.8437
    -1.8409  -1.8291  -1.8258  -1.8245  -1.8236  -1.8233  -1.8204  -1.7908
    -1.7881  -1.7878  -1.7458  -1.7429  -1.7048  -1.7020  -1.6576  -1.6551
    -1.6425  -1.6248  -1.6196  -1.6124  -1.6011  -1.5948  -1.5822  -1.5775
    -1.5755  -1.5722  -1.5705  -1.5697  -1.5683  -1.5670  -1.5481  -1.5458
    -1.5345  -1.5197  -1.5033  -1.5016  -1.4805  -1.4751  -1.4722  -1.4699
    -1.4678  -1.4628  -1.4438  -1.4408  -1.4308  -1.4256  -1.4146  -1.4053
    -1.3959  -1.3895  -1.3673  -1.3592  -1.3546  -1.3510  -1.3328  -1.3144
    -1.3099  -1.3064  -1.2995  -1.2985  -1.2826  -1.2773  -1.2753  -1.2645
    -1.2570  -1.2529  -1.2458  -1.2437  -1.2427  -1.2346  -1.2277  -1.2183
    -1.2159  -1.2105  -1.2094  -1.1964  -1.1933  -1.1889  -1.1831  -1.1477
    -1.1421  -1.1390  -1.1378  -1.1369  -1.1288  -1.0996  -1.0813  -1.0803
    -1.0800  -1.0781  -1.0756  -1.0720  -1.0695  -1.0555  -1.0496  -1.0199
    -1.0166  -1.0119  -1.0103  -0.9896  -0.9886  -0.9792  -0.9509  -0.9416
    -0.9157  -0.9133  -0.8868  -0.8861  -0.8829  -0.8818  -0.8803  -0.8760
    -0.8722  -0.8714  -0.8687  -0.8666  -0.8356  -0.8349  -0.8159  -0.8142
    -0.8116  -0.8104  -0.8088  -0.8054  -0.7912  -0.5182  -0.5039  -0.4469
    -0.4418  -0.4094  -0.2480  -0.1842  -0.1829  -0.1478   0.1350   0.1374
     0.4655   0.4713   0.5637   0.5646   0.6048   0.6076   0.7499   0.7545
     0.8724   0.8755   0.9692   1.5615   1.5780   1.5785   1.6136   1.6240
     1.6686   1.6812   1.7480   1.7520   1.9541   1.9565   2.1950   2.2683
     2.2754   2.2877   2.6663   2.6774   2.7391   2.7417   2.7484   2.7504
     2.8991   2.9003   2.9592   3.0451   3.0539   3.2751   3.2825   3.4089
     3.4352   3.4391   3.7082   3.7148   3.8200   3.8407   3.8419   3.9149
     3.9429   4.0253   4.0300   4.2628   4.2644   4.3535   4.3599   4.4703
     4.4826   4.4982   4.5103   4.6698   5.1696   5.3242   5.3364   5.4101
     5.4172   5.5306   5.5881   5.5943   5.6564   5.6994   5.7075   5.7126
     5.7529   5.7572   5.7592   5.8064   6.0201   6.0606   6.0759   6.0931
     6.0988   6.1032   6.1051   6.1076   6.1114   6.1524   6.1722   6.2067

          k = 0.2500-0.2500-0.0833 (167653 PWs)   bands (ev):

   -19.2482  -7.2051  -6.8604  -6.3359  -6.3336  -5.9055  -5.4962  -5.4044
    -5.4029  -5.2080  -5.2078  -5.0913  -5.0883  -5.0113  -4.9884  -4.9155
    -4.8308  -4.8267  -4.7886  -4.7874  -4.6280  -4.6106  -4.6095  -4.6084
    -4.6019  -4.5467  -4.5463  -4.5351  -4.5339  -4.4973  -4.4864  -4.4838
    -4.4429  -4.4423  -4.4091  -4.4081  -4.3575  -4.3552  -4.3468  -4.3440
    -4.3385  -4.3254  -4.3251  -4.2864  -4.2667  -4.2658  -4.2589  -4.2584
    -4.2282  -4.1796  -4.1623  -4.1612  -4.1606  -4.1571  -4.1499  -4.1446
    -4.1442  -4.1434  -4.0809  -4.0780  -4.0319  -4.0285  -4.0173  -3.9913
    -3.9902  -3.9725  -3.9674  -3.9667  -3.9639  -3.9606  -3.9117  -3.9109
    -3.8995  -3.8977  -3.7971  -3.7924  -3.7885  -3.7859  -3.7490  -3.7450
    -3.7253  -3.6980  -3.6962  -3.6683  -3.6662  -3.6474  -3.6452  -3.6359
    -3.6314  -3.5776  -3.5763  -3.5708  -3.5425  -3.5359  -3.5303  -3.5294
    -3.5284  -3.5028  -3.5011  -3.4710  -3.4646  -3.4485  -3.4420  -3.4200
    -3.4085  -3.3972  -3.3813  -3.3634  -3.3471  -3.3258  -3.3227  -3.2892
    -3.2820  -3.2806  -3.2677  -3.2659  -3.2623  -3.2613  -3.2265  -3.2133
    -3.1739  -3.1726  -3.1652  -3.1558  -3.1548  -3.1539  -3.1302  -3.1300
    -3.1095  -3.1082  -3.1069  -3.0809  -3.0797  -3.0731  -3.0700  -3.0686
    -3.0335  -3.0308  -2.9955  -2.9940  -2.9934  -2.9911  -2.9902  -2.9108
    -2.9015  -2.8985  -2.8969  -2.8961  -2.8948  -2.8907  -2.8898  -2.8893
    -2.8889  -2.8798  -2.8719  -2.8568  -2.8526  -2.8510  -2.8490  -2.8370
    -2.8313  -2.7956  -2.7940  -2.7936  -2.7894  -2.7882  -2.7712  -2.7702
    -2.7624  -2.7618  -2.7590  -2.7014  -2.7003  -2.6947  -2.6944  -2.6896
    -2.6876  -2.6621  -2.6033  -2.6020  -2.6011  -2.5981  -2.5875  -2.5853
    -2.5810  -2.5709  -2.5690  -2.5382  -2.5323  -2.5257  -2.5239  -2.5229
    -2.5220  -2.4858  -2.4838  -2.4735  -2.4732  -2.4718  -2.4707  -2.4284
    -2.4123  -2.4090  -2.3548  -2.3537  -2.3370  -2.3343  -2.3294  -2.3278
    -2.2821  -2.2789  -2.2572  -2.2425  -2.2296  -2.2262  -2.2239  -2.2035
    -2.2021  -2.1937  -2.1763  -2.1400  -2.1361  -2.1239  -2.1214  -2.1194
    -2.1120  -2.1100  -2.1006  -2.0939  -2.0929  -2.0905  -2.0867  -2.0839
    -2.0832  -2.0742  -2.0727  -2.0547  -2.0538  -2.0520  -2.0463  -2.0437
    -2.0419  -2.0212  -2.0193  -2.0082  -2.0065  -2.0004  -1.9993  -1.9623
    -1.9301  -1.9288  -1.8933  -1.8768  -1.8761  -1.8672  -1.8636  -1.8437
    -1.8409  -1.8291  -1.8258  -1.8245  -1.8236  -1.8233  -1.8204  -1.7908
    -1.7881  -1.7878  -1.7458  -1.7429  -1.7048  -1.7020  -1.6576  -1.6551
    -1.6425  -1.6248  -1.6196  -1.6124  -1.6011  -1.5948  -1.5822  -1.5775
    -1.5755  -1.5722  -1.5705  -1.5697  -1.5683  -1.5670  -1.5481  -1.5458
    -1.5345  -1.5197  -1.5033  -1.5016  -1.4805  -1.4751  -1.4722  -1.4699
    -1.4678  -1.4628  -1.4438  -1.4408  -1.4308  -1.4256  -1.4146  -1.4053
    -1.3959  -1.3895  -1.3673  -1.3592  -1.3546  -1.3510  -1.3328  -1.3144
    -1.3099  -1.3064  -1.2995  -1.2985  -1.2826  -1.2773  -1.2753  -1.2645
    -1.2570  -1.2529  -1.2458  -1.2437  -1.2427  -1.2346  -1.2277  -1.2183
    -1.2159  -1.2105  -1.2094  -1.1964  -1.1933  -1.1889  -1.1831  -1.1477
    -1.1421  -1.1390  -1.1378  -1.1369  -1.1288  -1.0996  -1.0813  -1.0803
    -1.0800  -1.0781  -1.0756  -1.0720  -1.0695  -1.0555  -1.0496  -1.0199
    -1.0166  -1.0119  -1.0103  -0.9896  -0.9886  -0.9792  -0.9509  -0.9416
    -0.9157  -0.9133  -0.8868  -0.8861  -0.8829  -0.8818  -0.8803  -0.8760
    -0.8722  -0.8714  -0.8687  -0.8666  -0.8356  -0.8349  -0.8159  -0.8142
    -0.8116  -0.8104  -0.8088  -0.8054  -0.7912  -0.5182  -0.5039  -0.4469
    -0.4418  -0.4094  -0.2480  -0.1842  -0.1829  -0.1478   0.1350   0.1374
     0.4655   0.4713   0.5637   0.5646   0.6048   0.6076   0.7499   0.7545
     0.8724   0.8755   0.9692   1.5615   1.5780   1.5785   1.6136   1.6240
     1.6686   1.6812   1.7480   1.7520   1.9541   1.9565   2.1950   2.2683
     2.2754   2.2877   2.6663   2.6774   2.7391   2.7417   2.7484   2.7504
     2.8991   2.9003   2.9592   3.0451   3.0539   3.2751   3.2825   3.4089
     3.4352   3.4391   3.7082   3.7148   3.8200   3.8407   3.8419   3.9149
     3.9429   4.0253   4.0300   4.2628   4.2644   4.3535   4.3599   4.4703
     4.4826   4.4982   4.5103   4.6698   5.1699   5.3245   5.3354   5.4101
     5.4172   5.5330   5.5881   5.5943   5.6554   5.6983   5.7074   5.7120
     5.7524   5.7570   5.7591   5.8063   6.0186   6.0605   6.0762   6.0938
     6.0975   6.1034   6.1045   6.1088   6.1114   6.1521   6.1766   6.2107

          k =-0.2500 0.2500 0.2500 (167588 PWs)   bands (ev):

   -19.2482  -7.2050  -6.8604  -6.3359  -6.3336  -5.9055  -5.4962  -5.4044
    -5.4029  -5.2080  -5.2078  -5.0913  -5.0883  -5.0113  -4.9884  -4.9155
    -4.8308  -4.8267  -4.7886  -4.7874  -4.6280  -4.6106  -4.6095  -4.6084
    -4.6019  -4.5467  -4.5463  -4.5351  -4.5339  -4.4973  -4.4864  -4.4838
    -4.4429  -4.4423  -4.4091  -4.4081  -4.3575  -4.3552  -4.3468  -4.3440
    -4.3385  -4.3254  -4.3251  -4.2864  -4.2667  -4.2658  -4.2589  -4.2584
    -4.2282  -4.1796  -4.1623  -4.1612  -4.1606  -4.1571  -4.1499  -4.1446
    -4.1443  -4.1434  -4.0809  -4.0780  -4.0319  -4.0285  -4.0173  -3.9913
    -3.9902  -3.9725  -3.9674  -3.9667  -3.9639  -3.9606  -3.9117  -3.9109
    -3.8995  -3.8977  -3.7971  -3.7924  -3.7885  -3.7859  -3.7490  -3.7450
    -3.7253  -3.6980  -3.6962  -3.6683  -3.6662  -3.6474  -3.6452  -3.6359
    -3.6314  -3.5776  -3.5763  -3.5708  -3.5425  -3.5359  -3.5303  -3.5294
    -3.5284  -3.5028  -3.5011  -3.4710  -3.4646  -3.4485  -3.4420  -3.4200
    -3.4085  -3.3972  -3.3813  -3.3634  -3.3471  -3.3258  -3.3227  -3.2892
    -3.2820  -3.2806  -3.2677  -3.2659  -3.2622  -3.2613  -3.2266  -3.2134
    -3.1739  -3.1725  -3.1652  -3.1558  -3.1548  -3.1539  -3.1302  -3.1300
    -3.1095  -3.1082  -3.1069  -3.0809  -3.0797  -3.0731  -3.0700  -3.0686
    -3.0335  -3.0308  -2.9955  -2.9940  -2.9934  -2.9911  -2.9902  -2.9108
    -2.9015  -2.8985  -2.8969  -2.8961  -2.8948  -2.8907  -2.8898  -2.8893
    -2.8889  -2.8798  -2.8719  -2.8568  -2.8526  -2.8509  -2.8490  -2.8370
    -2.8313  -2.7956  -2.7940  -2.7936  -2.7894  -2.7882  -2.7712  -2.7702
    -2.7624  -2.7618  -2.7590  -2.7014  -2.7003  -2.6947  -2.6944  -2.6896
    -2.6876  -2.6621  -2.6033  -2.6020  -2.6011  -2.5982  -2.5875  -2.5853
    -2.5810  -2.5709  -2.5690  -2.5382  -2.5323  -2.5257  -2.5239  -2.5229
    -2.5220  -2.4858  -2.4838  -2.4735  -2.4732  -2.4718  -2.4707  -2.4284
    -2.4123  -2.4090  -2.3548  -2.3537  -2.3370  -2.3343  -2.3294  -2.3278
    -2.2821  -2.2789  -2.2572  -2.2425  -2.2296  -2.2262  -2.2239  -2.2035
    -2.2021  -2.1937  -2.1763  -2.1400  -2.1361  -2.1239  -2.1214  -2.1194
    -2.1120  -2.1100  -2.1006  -2.0939  -2.0929  -2.0905  -2.0867  -2.0840
    -2.0832  -2.0742  -2.0727  -2.0547  -2.0538  -2.0520  -2.0463  -2.0437
    -2.0419  -2.0212  -2.0193  -2.0082  -2.0065  -2.0004  -1.9993  -1.9623
    -1.9301  -1.9288  -1.8933  -1.8768  -1.8761  -1.8672  -1.8636  -1.8437
    -1.8409  -1.8291  -1.8258  -1.8245  -1.8236  -1.8233  -1.8204  -1.7908
    -1.7881  -1.7878  -1.7458  -1.7429  -1.7048  -1.7020  -1.6576  -1.6551
    -1.6425  -1.6248  -1.6196  -1.6124  -1.6011  -1.5948  -1.5822  -1.5775
    -1.5755  -1.5722  -1.5705  -1.5697  -1.5683  -1.5670  -1.5481  -1.5458
    -1.5345  -1.5197  -1.5033  -1.5016  -1.4805  -1.4751  -1.4722  -1.4698
    -1.4678  -1.4628  -1.4438  -1.4407  -1.4308  -1.4256  -1.4146  -1.4054
    -1.3959  -1.3894  -1.3673  -1.3592  -1.3546  -1.3510  -1.3328  -1.3144
    -1.3099  -1.3064  -1.2995  -1.2985  -1.2826  -1.2773  -1.2753  -1.2645
    -1.2570  -1.2529  -1.2458  -1.2437  -1.2427  -1.2346  -1.2277  -1.2183
    -1.2159  -1.2105  -1.2094  -1.1964  -1.1932  -1.1889  -1.1831  -1.1477
    -1.1421  -1.1390  -1.1378  -1.1369  -1.1288  -1.0996  -1.0813  -1.0803
    -1.0800  -1.0781  -1.0756  -1.0720  -1.0695  -1.0555  -1.0496  -1.0199
    -1.0166  -1.0119  -1.0103  -0.9896  -0.9886  -0.9792  -0.9509  -0.9416
    -0.9157  -0.9133  -0.8868  -0.8861  -0.8829  -0.8818  -0.8803  -0.8760
    -0.8722  -0.8714  -0.8687  -0.8666  -0.8356  -0.8349  -0.8159  -0.8142
    -0.8116  -0.8104  -0.8088  -0.8054  -0.7912  -0.5182  -0.5039  -0.4469
    -0.4418  -0.4094  -0.2480  -0.1842  -0.1829  -0.1478   0.1350   0.1374
     0.4655   0.4713   0.5637   0.5646   0.6048   0.6076   0.7499   0.7545
     0.8724   0.8755   0.9692   1.5615   1.5780   1.5785   1.6136   1.6240
     1.6686   1.6812   1.7480   1.7520   1.9541   1.9565   2.1950   2.2683
     2.2754   2.2877   2.6663   2.6774   2.7391   2.7417   2.7484   2.7504
     2.8991   2.9003   2.9592   3.0451   3.0539   3.2751   3.2825   3.4089
     3.4352   3.4391   3.7082   3.7148   3.8200   3.8407   3.8419   3.9150
     3.9430   4.0253   4.0300   4.2628   4.2644   4.3535   4.3599   4.4703
     4.4826   4.4982   4.5103   4.6699   5.1610   5.3216   5.3312   5.4096
     5.4172   5.5360   5.5883   5.5947   5.6626   5.7014   5.7087   5.7313
     5.7564   5.7583   5.7639   5.8064   6.0399   6.0629   6.0765   6.0905
     6.0995   6.1035   6.1052   6.1112   6.1146   6.1379   6.1936   6.2288

     the Fermi energy is     0.8250 ev

!    total energy              =   -7425.28875376 Ry
     Harris-Foulkes estimate   =   -7425.28875375 Ry
     estimated scf accuracy    <          1.9E-09 Ry

     The total energy is the sum of the following terms:

     one-electron contribution =  -48782.54929254 Ry
     hartree contribution      =   24940.95523224 Ry
     xc contribution           =   -3604.24195599 Ry
     ewald contribution        =   20020.54978881 Ry
     smearing contrib. (-TS)   =      -0.00252629 Ry

     convergence has been achieved in  29 iterations

     Writing output data file 6604875.save

     init_run     :    165.52s CPU    171.07s WALL (       1 calls)
     electrons    :  10514.48s CPU  11003.10s WALL (       1 calls)

     Called by init_run:
     wfcinit      :    131.37s CPU    136.09s WALL (       1 calls)
     potinit      :      8.06s CPU      8.58s WALL (       1 calls)

     Called by electrons:
     c_bands      :   8694.57s CPU   9094.44s WALL (      30 calls)
     sum_band     :   1173.29s CPU   1244.49s WALL (      30 calls)
     v_of_rho     :    211.01s CPU    223.10s WALL (      30 calls)
     newd         :    442.73s CPU    447.46s WALL (      30 calls)
     mix_rho      :      6.41s CPU      6.88s WALL (      30 calls)
     vdW_energy   :      9.39s CPU      9.94s WALL (      30 calls)
     vdW_ffts     :    128.71s CPU    135.09s WALL (      60 calls)
     vdW_v        :     23.02s CPU     23.92s WALL (      30 calls)

     Called by c_bands:
     init_us_2    :     11.94s CPU     12.25s WALL (     366 calls)
     cegterg      :   8543.35s CPU   8941.54s WALL (     180 calls)

     Called by *egterg:
     h_psi        :   3301.60s CPU   3581.05s WALL (     861 calls)
     s_psi        :    632.75s CPU    637.67s WALL (     861 calls)
     g_psi        :      6.31s CPU      6.34s WALL (     675 calls)
     cdiaghg      :   2107.79s CPU   2113.06s WALL (     849 calls)

     Called by h_psi:
     add_vuspsi   :    631.86s CPU    640.68s WALL (     861 calls)

     General routines
     calbec       :   1097.75s CPU   1100.63s WALL (    1041 calls)
     fft          :    247.93s CPU    260.02s WALL (    1980 calls)
     ffts         :      5.29s CPU      5.54s WALL (      60 calls)
     fftw         :   2149.64s CPU   2462.91s WALL (  481012 calls)
     interpolate  :     11.10s CPU     11.94s WALL (      60 calls)
     davcio       :      0.01s CPU      0.13s WALL (       6 calls)

     Parallel routines
     fft_scatter  :   1513.91s CPU   1751.04s WALL (  483052 calls)

     PWSCF        :     2h58m CPU        3h 6m WALL


   This run was terminated on:   6: 7:38   2Jul2015            

=------------------------------------------------------------------------------=
   JOB DONE.
=------------------------------------------------------------------------------=
