
     Program PWSCF v.5.1.1 starts on 15Jun2015 at 11:15:58 

     This program is part of the open-source Quantum ESPRESSO suite
     for quantum simulation of materials; please cite
         "P. Giannozzi et al., J. Phys.:Condens. Matter 21 395502 (2009);
          URL http://www.quantum-espresso.org", 
     in publications or presentations arising from this work. More details at
     http://www.quantum-espresso.org/quote

     Parallel version (MPI), running on     8 processors
     R & G space division:  proc/nbgrp/npool/nimage =       8
     Waiting for input...
     Reading input from standard input
Warning: card &IONS ignored
Warning: card / ignored
Warning: card &CELL ignored
Warning: card / ignored

     Current dimensions of program PWSCF are:
     Max number of different atomic species (ntypx) = 10
     Max number of k-points (npk) =  40000
     Max angular momentum in pseudopotentials (lmaxx) =  3

     IMPORTANT: XC functional enforced from input :
     Exchange-correlation      = VDW-DF ( 1  4  4  0 1 0)
     Any further DFT definition will be discarded
     Please, verify this is what you really want


     Subspace diagonalization in iterative solution of the eigenvalue problem:
     a serial algorithm will be used


     Parallelization info
     --------------------
     sticks:   dense  smooth     PW     G-vecs:    dense   smooth      PW
     Min        1783     893    233               387139   136875   18145
     Max        1784     894    234               387152   136900   18148
     Sum       14269    7147   1867              3097177  1095093  145167


     Title: 
     GOLD                                                                       


     bravais-lattice index     =            4
     lattice parameter (alat)  =      22.7436  a.u.
     unit-cell volume          =   22924.1508 (a.u.)^3
     number of atoms/cell      =           64
     number of atomic types    =            1
     number of electrons       =       704.00
     number of Kohn-Sham states=          422
     kinetic-energy cutoff     =      50.0000  Ry
     charge density cutoff     =     400.0000  Ry
     convergence threshold     =      1.0E-08
     mixing beta               =       0.7000
     number of iterations used =            8  plain     mixing
     Exchange-correlation      = VDW-DF ( 1  4  4  0 1 0)

     celldm(1)=  22.743643  celldm(2)=   0.000000  celldm(3)=   2.250000
     celldm(4)=   0.000000  celldm(5)=   0.000000  celldm(6)=   0.000000

     crystal axes: (cart. coord. in units of alat)
               a(1) = (   1.000000   0.000000   0.000000 )  
               a(2) = (  -0.500000   0.866025   0.000000 )  
               a(3) = (   0.000000   0.000000   2.250000 )  

     reciprocal axes: (cart. coord. in units 2 pi/alat)
               b(1) = (  1.000000  0.577350 -0.000000 )  
               b(2) = (  0.000000  1.154701  0.000000 )  
               b(3) = (  0.000000 -0.000000  0.444444 )  


     PseudoPot. # 1 for Au read from file:
     /home/andrejb/Andrej/qe/pseudo/Au.pbe-nd-van.UPF
     MD5 check sum: 458681b50f36d87ef23c61b04bba420a
     Pseudo is Ultrasoft + core correction, Zval = 11.0
     Generated by new atomic code, or converted to UPF format
     Using radial grid of  985 points,  3 beta functions with: 
                l(1) =   1
                l(2) =   2
                l(3) =   2
     Q(r) pseudized with  8 coefficients,  rinner =    1.100   1.100   1.100
                                                       1.100   1.100

     vdW kernel table read from file vdW_kernel_table
     MD5 check sum: 48e77a2e26edf626eeb0eaa751ad5cac

     atomic species   valence    mass     pseudopotential
        Au            11.00   196.96657     Au( 1.00)

     No symmetry found
          (note:  1 additional sym.ops. were found but ignored
           their fractional translations are incommensurate with FFT grid)


   Cartesian axes

     site n.     atom                  positions (alat units)
         1           Au  tau(   1) = (   0.3540481   0.6132292   0.0000000  )
         2           Au  tau(   2) = (   0.4790062   0.3967954   0.0000000  )
         3           Au  tau(   3) = (   0.6039644   0.1803616   0.0000000  )
         4           Au  tau(   4) = (   0.7289225  -0.0360723   0.0000000  )
         5           Au  tau(   5) = (   0.1041318   0.6132292   0.0000000  )
         6           Au  tau(   6) = (   0.2290899   0.3967954   0.0000000  )
         7           Au  tau(   7) = (   0.3540481   0.1803616   0.0000000  )
         8           Au  tau(   8) = (   0.4790062  -0.0360723   0.0000000  )
         9           Au  tau(   9) = (  -0.1457845   0.6132292   0.0000000  )
        10           Au  tau(  10) = (  -0.0208264   0.3967954   0.0000000  )
        11           Au  tau(  11) = (   0.1041318   0.1803616   0.0000000  )
        12           Au  tau(  12) = (   0.2290899  -0.0360723   0.0000000  )
        13           Au  tau(  13) = (  -0.3957008   0.6132292   0.0000000  )
        14           Au  tau(  14) = (  -0.2707426   0.3967954   0.0000000  )
        15           Au  tau(  15) = (  -0.1457845   0.1803616   0.0000000  )
        16           Au  tau(  16) = (  -0.0208264  -0.0360723   0.0000000  )
        17           Au  tau(  17) = (   0.4790062   0.6853738   0.2040557  )
        18           Au  tau(  18) = (   0.6039644   0.4689400   0.2040557  )
        19           Au  tau(  19) = (   0.7289225   0.2525062   0.2040557  )
        20           Au  tau(  20) = (   0.8538806   0.0360723   0.2040557  )
        21           Au  tau(  21) = (   0.2290899   0.6853738   0.2040557  )
        22           Au  tau(  22) = (   0.3540481   0.4689400   0.2040557  )
        23           Au  tau(  23) = (   0.4790062   0.2525062   0.2040557  )
        24           Au  tau(  24) = (   0.6039644   0.0360723   0.2040557  )
        25           Au  tau(  25) = (  -0.0208264   0.6853738   0.2040557  )
        26           Au  tau(  26) = (   0.1041318   0.4689400   0.2040557  )
        27           Au  tau(  27) = (   0.2290899   0.2525062   0.2040557  )
        28           Au  tau(  28) = (   0.3540481   0.0360723   0.2040557  )
        29           Au  tau(  29) = (  -0.2707426   0.6853738   0.2040557  )
        30           Au  tau(  30) = (  -0.1457845   0.4689400   0.2040557  )
        31           Au  tau(  31) = (  -0.0208264   0.2525062   0.2040557  )
        32           Au  tau(  32) = (   0.1041318   0.0360723   0.2040557  )
        33           Au  tau(  33) = (   0.3540481   0.7575185   0.4081116  )
        34           Au  tau(  34) = (   0.4790062   0.5410847   0.4081116  )
        35           Au  tau(  35) = (   0.6039644   0.3246507   0.4081116  )
        36           Au  tau(  36) = (   0.7289225   0.1082169   0.4081116  )
        37           Au  tau(  37) = (   0.1041318   0.7575185   0.4081116  )
        38           Au  tau(  38) = (   0.2290899   0.5410847   0.4081116  )
        39           Au  tau(  39) = (   0.3540481   0.3246507   0.4081116  )
        40           Au  tau(  40) = (   0.4790062   0.1082169   0.4081116  )
        41           Au  tau(  41) = (  -0.1457845   0.7575185   0.4081116  )
        42           Au  tau(  42) = (  -0.0208264   0.5410847   0.4081116  )
        43           Au  tau(  43) = (   0.1041318   0.3246507   0.4081116  )
        44           Au  tau(  44) = (   0.2290899   0.1082169   0.4081116  )
        45           Au  tau(  45) = (  -0.3957008   0.7575185   0.4081116  )
        46           Au  tau(  46) = (  -0.2707426   0.5410847   0.4081116  )
        47           Au  tau(  47) = (  -0.1457845   0.3246507   0.4081116  )
        48           Au  tau(  48) = (  -0.0208264   0.1082169   0.4081116  )
        49           Au  tau(  49) = (   0.3540481   0.6132292   0.6121674  )
        50           Au  tau(  50) = (   0.4790062   0.3967954   0.6121674  )
        51           Au  tau(  51) = (   0.6039644   0.1803616   0.6121674  )
        52           Au  tau(  52) = (   0.7289225  -0.0360723   0.6121674  )
        53           Au  tau(  53) = (   0.1041318   0.6132292   0.6121674  )
        54           Au  tau(  54) = (   0.2290899   0.3967954   0.6121674  )
        55           Au  tau(  55) = (   0.3540481   0.1803616   0.6121674  )
        56           Au  tau(  56) = (   0.4790062  -0.0360723   0.6121674  )
        57           Au  tau(  57) = (  -0.1457845   0.6132292   0.6121674  )
        58           Au  tau(  58) = (  -0.0208264   0.3967954   0.6121674  )
        59           Au  tau(  59) = (   0.1041318   0.1803616   0.6121674  )
        60           Au  tau(  60) = (   0.2290899  -0.0360723   0.6121674  )
        61           Au  tau(  61) = (  -0.3957008   0.6132292   0.6121674  )
        62           Au  tau(  62) = (  -0.2707426   0.3967954   0.6121674  )
        63           Au  tau(  63) = (  -0.1457845   0.1803616   0.6121674  )
        64           Au  tau(  64) = (  -0.0208264  -0.0360723   0.6121674  )

     number of k points=    12  Marzari-Vanderbilt smearing, width (Ry)=  0.0200
                       cart. coord. in units 2pi/alat
        k(    1) = (   0.2500000   0.4330127   0.1111111), wk =   0.1666667
        k(    2) = (   0.2500000  -0.1443376   0.1111111), wk =   0.1666667
        k(    3) = (  -0.2500000  -0.4330127   0.1111111), wk =   0.1666667
        k(    4) = (  -0.2500000   0.4330127  -0.1111111), wk =   0.1666667
        k(    5) = (   0.2500000  -0.4330127  -0.1111111), wk =   0.1666667
        k(    6) = (   0.5000000   0.0000000   0.1111111), wk =   0.1666667
        k(    7) = (  -0.5000000   0.0000000   0.1111111), wk =   0.1666667
        k(    8) = (  -0.2500000   0.1443376   0.1111111), wk =   0.1666667
        k(    9) = (  -0.2500000  -0.1443376  -0.1111111), wk =   0.1666667
        k(   10) = (   0.2500000   0.1443376  -0.1111111), wk =   0.1666667
        k(   11) = (   0.0000000  -0.2886751   0.1111111), wk =   0.1666667
        k(   12) = (   0.0000000   0.2886751   0.1111111), wk =   0.1666667

     Dense  grid:  3097177 G-vectors     FFT dimensions: ( 150, 150, 360)

     Smooth grid:  1095093 G-vectors     FFT dimensions: ( 108, 108, 240)

     Largest allocated arrays     est. size (Mb)     dimensions
        Kohn-Sham Wavefunctions       110.23 Mb     (   17118,  422)
        NL pseudopotentials           217.32 Mb     (   17118,  832)
        Each V/rho on FFT grid         15.45 Mb     ( 1012500)
        Each G-vector array             2.95 Mb     (  387141)
        G-vector shells                 0.22 Mb     (   29038)
     Largest temporary arrays     est. size (Mb)     dimensions
        Auxiliary wavefunctions       440.91 Mb     (   17118, 1688)
        Each subspace H/S matrix       43.48 Mb     (    1688, 1688)
        Each <psi_i|beta_j> matrix      5.36 Mb     (     832,  422)
        Arrays for rho mixing         123.60 Mb     ( 1012500,    8)

     Initial potential from superposition of free atoms
     Check: negative starting charge=   -1.727440

     starting charge  703.25684, renormalised to  704.00000

     negative rho (up, down):  1.729E+00 0.000E+00


     ************************************************************************
     *
     * You are using vdW-DF for exchange-correlation in this calculation.
     * Please cite the following three references that made this development
     * possible:
     *
     *   M. Dion, H. Rydberg, E. Schroder, D. C. Langreth, and
     *   B. I. Lundqvist, Phys. Rev. Lett. 92, 246401 (2004).
     *
     *   T. Thonhauser, V. R. Cooper, S. Li, A. Puzder, P. Hyldgaard, and
     *   D. C. Langreth, Phys. Rev. B 76, 125112 (2007).
     *
     *   G. Roman-Perez and J. M. Soler, Phys. Rev. Lett. 103, 096102 (2009).
     *
     *
     * If you are using vdW-DF2, please also cite:
     *
     *   K. Lee, E. D. Murray, L. Kong, B. I. Lundqvist, and
     *   D. C. Langreth, Phys. Rev. B 82, 081101(R) (2010).
     *
     *
     * If you are calculating the stress with vdW-DF, please also cite:
     *
     *   R. Sabatini, E. Kucukbenli, B. Kolb, T. Thonhauser, and
     *   S. de Gironcoli, J. Phys.: Condens. Matter 24, 424209 (2012).
     *
     ************************************************************************

     Carrying out vdW-DF run using the following parameters:

     Nqs =      20    Nr_points =    1024   r_max =   100.000
     q_mesh =
               0.00001000     0.04494208     0.09755937     0.15916263
               0.23128650     0.31572767     0.41458969     0.53033537
               0.66584808     0.82450364     1.01025438     1.22772762
               1.48234092     1.78043706     2.12944203     2.53805004
               3.01644009     3.57652955     4.23227104     5.00000000

     Gradients computed in reciprocal space

     ************************************************************************


     Starting wfc are  576 randomized atomic wfcs

     total cpu time spent up to now is     1152.8 secs

     per-process dynamical memory:  1875.8 Mb

     Self-consistent Calculation

     iteration #  1     ecut=    50.00 Ry     beta=0.70
     Davidson diagonalization with overlap
     ethr =  1.00E-02,  avg # of iterations =  3.0

     Threshold (ethr) on eigenvalues was too large:
     Diagonalizing with lowered threshold

     Davidson diagonalization with overlap
     ethr =  2.85E-04,  avg # of iterations =  4.3

     negative rho (up, down):  1.722E+00 0.000E+00

     total cpu time spent up to now is     6129.9 secs

     total energy              =   -6568.26148576 Ry
     Harris-Foulkes estimate   =   -6570.21028799 Ry
     estimated scf accuracy    <       2.40495839 Ry

     iteration #  2     ecut=    50.00 Ry     beta=0.70
     Davidson diagonalization with overlap
     ethr =  3.42E-04,  avg # of iterations = 11.8

     negative rho (up, down):  1.722E+00 0.000E+00

     total cpu time spent up to now is    11829.7 secs

     total energy              =   -6562.71210304 Ry
     Harris-Foulkes estimate   =   -6575.27501412 Ry
     estimated scf accuracy    <      71.92328175 Ry

     iteration #  3     ecut=    50.00 Ry     beta=0.70
     Davidson diagonalization with overlap
     ethr =  3.42E-04,  avg # of iterations =  6.0

     negative rho (up, down):  1.737E+00 0.000E+00

     total cpu time spent up to now is    16129.6 secs

     total energy              =   -6569.46392284 Ry
     Harris-Foulkes estimate   =   -6570.05585058 Ry
     estimated scf accuracy    <       1.99555240 Ry

     iteration #  4     ecut=    50.00 Ry     beta=0.70
     Davidson diagonalization with overlap
     ethr =  2.83E-04,  avg # of iterations =  2.0

     negative rho (up, down):  1.746E+00 0.000E+00

     total cpu time spent up to now is    18364.0 secs

     total energy              =   -6569.70977638 Ry
     Harris-Foulkes estimate   =   -6569.75517781 Ry
     estimated scf accuracy    <       0.10374401 Ry

     iteration #  5     ecut=    50.00 Ry     beta=0.70
     Davidson diagonalization with overlap
     ethr =  1.47E-05,  avg # of iterations =  6.0

     negative rho (up, down):  1.752E+00 0.000E+00

     total cpu time spent up to now is    21929.1 secs

     total energy              =   -6569.73142948 Ry
     Harris-Foulkes estimate   =   -6569.73515667 Ry
     estimated scf accuracy    <       0.01381031 Ry

     iteration #  6     ecut=    50.00 Ry     beta=0.70
     Davidson diagonalization with overlap
     c_bands:  1 eigenvalues not converged
     c_bands:  1 eigenvalues not converged
     c_bands:  1 eigenvalues not converged
     c_bands:  1 eigenvalues not converged
     c_bands:  1 eigenvalues not converged
     c_bands:  1 eigenvalues not converged
     ethr =  1.96E-06,  avg # of iterations = 13.0

     negative rho (up, down):  1.752E+00 0.000E+00

     total cpu time spent up to now is    25294.0 secs

     total energy              =   -6569.73049161 Ry
     Harris-Foulkes estimate   =   -6569.73604644 Ry
     estimated scf accuracy    <       0.03477286 Ry

     iteration #  7     ecut=    50.00 Ry     beta=0.70
     Davidson diagonalization with overlap
     ethr =  1.96E-06,  avg # of iterations =  5.0

     negative rho (up, down):  1.752E+00 0.000E+00

     total cpu time spent up to now is    27747.2 secs

     total energy              =   -6569.73222899 Ry
     Harris-Foulkes estimate   =   -6569.73473926 Ry
     estimated scf accuracy    <       0.02257233 Ry

     iteration #  8     ecut=    50.00 Ry     beta=0.70
     Davidson diagonalization with overlap
     ethr =  1.96E-06,  avg # of iterations =  3.1

     negative rho (up, down):  1.752E+00 0.000E+00

     total cpu time spent up to now is    30013.9 secs

     total energy              =   -6569.73338858 Ry
     Harris-Foulkes estimate   =   -6569.73382567 Ry
     estimated scf accuracy    <       0.00226738 Ry

     iteration #  9     ecut=    50.00 Ry     beta=0.70
     Davidson diagonalization with overlap
     ethr =  3.22E-07,  avg # of iterations =  1.3

     negative rho (up, down):  1.752E+00 0.000E+00

     total cpu time spent up to now is    32142.3 secs

     total energy              =   -6569.73355075 Ry
     Harris-Foulkes estimate   =   -6569.73358876 Ry
     estimated scf accuracy    <       0.00015430 Ry

     iteration # 10     ecut=    50.00 Ry     beta=0.70
     Davidson diagonalization with overlap
     ethr =  2.19E-08,  avg # of iterations =  3.0

     negative rho (up, down):  1.752E+00 0.000E+00

     total cpu time spent up to now is    34604.5 secs

     total energy              =   -6569.73356959 Ry
     Harris-Foulkes estimate   =   -6569.73358106 Ry
     estimated scf accuracy    <       0.00002702 Ry

     iteration # 11     ecut=    50.00 Ry     beta=0.70
     Davidson diagonalization with overlap
     ethr =  3.84E-09,  avg # of iterations =  2.2

     negative rho (up, down):  1.752E+00 0.000E+00

     total cpu time spent up to now is    37153.8 secs

     total energy              =   -6569.73357452 Ry
     Harris-Foulkes estimate   =   -6569.73357949 Ry
     estimated scf accuracy    <       0.00001614 Ry

     iteration # 12     ecut=    50.00 Ry     beta=0.70
     Davidson diagonalization with overlap
     ethr =  2.29E-09,  avg # of iterations =  2.2

     negative rho (up, down):  1.752E+00 0.000E+00

     total cpu time spent up to now is    39436.2 secs

     total energy              =   -6569.73357530 Ry
     Harris-Foulkes estimate   =   -6569.73357920 Ry
     estimated scf accuracy    <       0.00001457 Ry

     iteration # 13     ecut=    50.00 Ry     beta=0.70
     Davidson diagonalization with overlap
     ethr =  2.07E-09,  avg # of iterations =  2.0

     negative rho (up, down):  1.752E+00 0.000E+00

     total cpu time spent up to now is    41605.0 secs

     total energy              =   -6569.73357700 Ry
     Harris-Foulkes estimate   =   -6569.73357741 Ry
     estimated scf accuracy    <       0.00000126 Ry

     iteration # 14     ecut=    50.00 Ry     beta=0.70
     Davidson diagonalization with overlap
     ethr =  1.78E-10,  avg # of iterations =  3.0

     negative rho (up, down):  1.752E+00 0.000E+00

     total cpu time spent up to now is    44315.0 secs

     total energy              =   -6569.73357713 Ry
     Harris-Foulkes estimate   =   -6569.73357753 Ry
     estimated scf accuracy    <       0.00000138 Ry

     iteration # 15     ecut=    50.00 Ry     beta=0.70
     Davidson diagonalization with overlap
     ethr =  1.78E-10,  avg # of iterations =  2.0

     negative rho (up, down):  1.752E+00 0.000E+00

     total cpu time spent up to now is    46503.5 secs

     total energy              =   -6569.73357722 Ry
     Harris-Foulkes estimate   =   -6569.73357735 Ry
     estimated scf accuracy    <       0.00000015 Ry

     iteration # 16     ecut=    50.00 Ry     beta=0.70
     Davidson diagonalization with overlap
     ethr =  2.10E-11,  avg # of iterations =  2.0

     negative rho (up, down):  1.752E+00 0.000E+00

     total cpu time spent up to now is    48831.0 secs

     total energy              =   -6569.73357723 Ry
     Harris-Foulkes estimate   =   -6569.73357725 Ry
     estimated scf accuracy    <       0.00000002 Ry

     iteration # 17     ecut=    50.00 Ry     beta=0.70
     Davidson diagonalization with overlap
     ethr =  3.13E-12,  avg # of iterations =  2.0

     negative rho (up, down):  1.752E+00 0.000E+00

     total cpu time spent up to now is    51143.1 secs

     total energy              =   -6569.73357723 Ry
     Harris-Foulkes estimate   =   -6569.73357724 Ry
     estimated scf accuracy    <       0.00000007 Ry

     iteration # 18     ecut=    50.00 Ry     beta=0.70
     Davidson diagonalization with overlap
     ethr =  3.13E-12,  avg # of iterations =  1.5

     negative rho (up, down):  1.752E+00 0.000E+00

     total cpu time spent up to now is    53290.5 secs

     total energy              =   -6569.73357723 Ry
     Harris-Foulkes estimate   =   -6569.73357724 Ry
     estimated scf accuracy    <       0.00000005 Ry

     iteration # 19     ecut=    50.00 Ry     beta=0.70
     Davidson diagonalization with overlap
     ethr =  3.13E-12,  avg # of iterations =  2.0

     negative rho (up, down):  1.752E+00 0.000E+00

     total cpu time spent up to now is    55456.8 secs

     End of self-consistent calculation

          k = 0.2500 0.4330 0.1111 (136853 PWs)   bands (ev):

    -6.3755  -5.9759  -5.9759  -5.3303  -4.9630  -4.9630  -4.9575  -4.9575
    -4.5618  -4.5618  -4.4641  -4.4641  -4.4479  -4.4261  -4.4254  -4.2956
    -4.2953  -4.2728  -4.2315  -4.2315  -4.1829  -4.1829  -4.1691  -4.1691
    -4.1320  -4.1298  -4.1297  -4.0694  -4.0694  -4.0271  -4.0271  -4.0112
    -4.0111  -3.9886  -3.9886  -3.9667  -3.9567  -3.9565  -3.9503  -3.8818
    -3.8818  -3.8302  -3.8302  -3.7983  -3.7982  -3.7382  -3.7382  -3.7161
    -3.7161  -3.6761  -3.6671  -3.6671  -3.6368  -3.6333  -3.6332  -3.6318
    -3.6317  -3.6185  -3.5558  -3.5558  -3.5530  -3.5137  -3.4923  -3.4317
    -3.4317  -3.4183  -3.4183  -3.3936  -3.3936  -3.3495  -3.3491  -3.3010
    -3.3010  -3.2794  -3.2793  -3.2394  -3.2325  -3.2325  -3.1794  -3.1582
    -3.1581  -3.1363  -3.1362  -3.1335  -3.1335  -3.1306  -3.1306  -3.1218
    -3.0775  -3.0106  -3.0105  -3.0022  -3.0022  -2.9840  -2.9796  -2.9795
    -2.9734  -2.9005  -2.9004  -2.8883  -2.8674  -2.8446  -2.8445  -2.8371
    -2.8075  -2.8075  -2.7735  -2.7404  -2.7404  -2.7293  -2.7159  -2.6966
    -2.6966  -2.6539  -2.6539  -2.6127  -2.5884  -2.5884  -2.5706  -2.5706
    -2.5523  -2.5522  -2.5399  -2.5277  -2.5277  -2.4831  -2.4735  -2.4735
    -2.4698  -2.4698  -2.4538  -2.4430  -2.4427  -2.4426  -2.4382  -2.4356
    -2.4293  -2.4277  -2.4276  -2.3858  -2.3824  -2.3824  -2.3815  -2.3815
    -2.3769  -2.3768  -2.3602  -2.3531  -2.3399  -2.3399  -2.3084  -2.3084
    -2.3069  -2.3069  -2.3045  -2.3045  -2.2889  -2.2889  -2.2883  -2.2883
    -2.2762  -2.2359  -2.2359  -2.1916  -2.1916  -2.1755  -2.1755  -2.1568
    -2.1567  -2.1204  -2.1203  -2.1059  -2.1053  -2.0678  -2.0558  -2.0558
    -2.0557  -2.0414  -2.0414  -2.0409  -2.0409  -2.0101  -2.0004  -1.9946
    -1.9356  -1.9336  -1.9335  -1.9292  -1.9291  -1.8968  -1.8783  -1.8783
    -1.8552  -1.8552  -1.7955  -1.7955  -1.7582  -1.7363  -1.7363  -1.6837
    -1.6837  -1.6740  -1.6740  -1.6545  -1.6487  -1.6487  -1.6405  -1.6405
    -1.5772  -1.5772  -1.5700  -1.5700  -1.5606  -1.5542  -1.5542  -1.5203
    -1.5203  -1.4954  -1.4932  -1.4931  -1.4809  -1.4795  -1.4756  -1.4756
    -1.4510  -1.4510  -1.4170  -1.4170  -1.4019  -1.4019  -1.3662  -1.3518
    -1.3264  -1.3264  -1.3068  -1.2925  -1.2925  -1.2549  -1.2071  -1.2071
    -1.2064  -1.2064  -1.1978  -1.1978  -1.1871  -1.1690  -1.1690  -1.1274
    -1.1274  -1.1059  -1.1059  -1.1015  -1.1015  -1.0937  -1.0678  -1.0678
    -1.0674  -1.0674  -1.0649  -1.0271  -1.0271  -1.0245  -1.0245  -0.9956
    -0.9920  -0.9920  -0.9660  -0.9525  -0.9525  -0.9172  -0.9008  -0.9008
    -0.8646  -0.8633  -0.8494  -0.8494  -0.8419  -0.8419  -0.8349  -0.8349
    -0.8285  -0.8285  -0.8045  -0.8045  -0.8010  -0.7922  -0.7922  -0.7625
    -0.7625  -0.7532  -0.7532  -0.7282  -0.7221  -0.7221  -0.7200  -0.6579
    -0.6548  -0.6479  -0.6479  -0.6427  -0.6427  -0.6365  -0.6204  -0.6204
    -0.6119  -0.6119  -0.6090  -0.6090  -0.5697  -0.5674  -0.5674  -0.5588
    -0.5588  -0.5544  -0.5521  -0.5436  -0.5365  -0.5354  -0.5353  -0.4952
    -0.4952  -0.4843  -0.4781  -0.4781  -0.4024  -0.4024  -0.3965  -0.3964
    -0.3887  -0.3887  -0.3517  -0.3421  -0.3421  -0.3099  -0.3099  -0.3070
    -0.1949  -0.1949  -0.0927   0.3337   0.3337   0.3368   0.3368   0.4059
     0.4059   0.7745   0.7745   0.8167   0.8167   0.9380   1.0285   1.1419
     1.1419   1.3520   1.3520   1.9948   1.9948   2.1574   2.1574   2.2782
     2.2782   2.3831   2.3831   2.5382   2.7733   2.7818   2.8963   3.1220
     3.1220   3.1938   3.1938   3.2954   3.3218   3.5219   3.5219   3.5657
     3.7797   3.7797   3.8409   3.8410   4.0913   4.1055   4.1055   4.3475
     4.3948   4.3948   4.4359   4.7672   4.7672   4.8089   4.9447   5.1116
     5.1116   5.1783   5.1784   5.6313   5.8926   5.9031   5.9032   5.9131
     5.9131   5.9646   5.9646   6.0672   6.0710   6.1104   6.1383   6.1383
     6.1610   6.1610   6.1863   6.1863   6.2214   6.5782   6.5799   6.7510
     6.7617   6.7620   6.8405   6.8408   6.8484   6.9756

          k = 0.2500-0.1443 0.1111 (136898 PWs)   bands (ev):

    -6.5855  -5.7930  -5.5340  -5.4423  -5.4422  -4.9028  -4.9028  -4.8043
    -4.7704  -4.6236  -4.5979  -4.5239  -4.5218  -4.5218  -4.4571  -4.4571
    -4.3296  -4.2870  -4.2870  -4.2420  -4.2284  -4.2283  -4.0979  -4.0979
    -4.0676  -4.0675  -4.0674  -4.0447  -4.0158  -4.0158  -3.9273  -3.9113
    -3.9113  -3.8989  -3.8807  -3.8806  -3.8725  -3.8650  -3.8649  -3.8226
    -3.8226  -3.8122  -3.8122  -3.8078  -3.8078  -3.7792  -3.7690  -3.7690
    -3.7375  -3.7375  -3.6916  -3.6768  -3.6767  -3.6575  -3.6575  -3.5893
    -3.5893  -3.5698  -3.5569  -3.5569  -3.4819  -3.4819  -3.4760  -3.4760
    -3.4604  -3.4604  -3.4515  -3.4515  -3.2946  -3.2946  -3.2855  -3.2855
    -3.2800  -3.2382  -3.2382  -3.2294  -3.2294  -3.1734  -3.1734  -3.1627
    -3.1627  -3.1201  -3.0986  -3.0986  -3.0757  -3.0699  -3.0699  -3.0228
    -3.0228  -3.0106  -3.0106  -3.0000  -3.0000  -2.9610  -2.9610  -2.9345
    -2.9345  -2.9274  -2.9274  -2.9144  -2.8538  -2.8510  -2.8509  -2.8119
    -2.8119  -2.7502  -2.7502  -2.7210  -2.7151  -2.7073  -2.7073  -2.6983
    -2.6715  -2.6715  -2.6617  -2.6438  -2.6236  -2.6236  -2.6232  -2.6003
    -2.6003  -2.5919  -2.5919  -2.5915  -2.5915  -2.5670  -2.5239  -2.4999
    -2.4999  -2.4817  -2.4726  -2.4715  -2.4713  -2.4542  -2.4541  -2.4424
    -2.4200  -2.4177  -2.4177  -2.4084  -2.4084  -2.4060  -2.3724  -2.3693
    -2.3692  -2.3679  -2.3678  -2.3097  -2.2919  -2.2901  -2.2865  -2.2865
    -2.2659  -2.2659  -2.2617  -2.2381  -2.2380  -2.2247  -2.2122  -2.2122
    -2.1992  -2.1971  -2.1971  -2.1648  -2.1648  -2.1300  -2.1122  -2.1122
    -2.1090  -2.1045  -2.1042  -2.1040  -2.1013  -2.1013  -2.1001  -2.0998
    -2.0743  -2.0743  -1.9478  -1.9478  -1.9145  -1.9145  -1.9115  -1.8971
    -1.8971  -1.8896  -1.8896  -1.8891  -1.8891  -1.8734  -1.8681  -1.8508
    -1.8507  -1.8445  -1.8444  -1.8434  -1.8103  -1.8103  -1.7942  -1.7942
    -1.7657  -1.7579  -1.7579  -1.7359  -1.7304  -1.7188  -1.7188  -1.7075
    -1.6908  -1.6908  -1.6785  -1.6785  -1.6510  -1.6510  -1.6359  -1.6359
    -1.6030  -1.6030  -1.5963  -1.5396  -1.5396  -1.5209  -1.5209  -1.5177
    -1.4892  -1.4871  -1.4610  -1.4596  -1.4596  -1.4295  -1.4241  -1.4240
    -1.4012  -1.4012  -1.3780  -1.3712  -1.3712  -1.3419  -1.3291  -1.3291
    -1.2698  -1.2698  -1.2669  -1.2669  -1.2390  -1.2389  -1.2281  -1.2264
    -1.2264  -1.2115  -1.1730  -1.1730  -1.1599  -1.1235  -1.1233  -1.1232
    -1.1218  -1.1193  -1.1193  -1.0963  -1.0963  -1.0955  -1.0562  -1.0562
    -1.0447  -1.0447  -1.0384  -1.0384  -1.0201  -0.9993  -0.9993  -0.9772
    -0.9772  -0.8910  -0.8756  -0.8740  -0.8740  -0.8723  -0.8657  -0.8657
    -0.8442  -0.8374  -0.8161  -0.8161  -0.8091  -0.8091  -0.7936  -0.7756
    -0.7729  -0.7729  -0.7652  -0.6945  -0.6945  -0.6577  -0.6577  -0.6522
    -0.6494  -0.6494  -0.6437  -0.6437  -0.6340  -0.6340  -0.6187  -0.5884
    -0.5790  -0.5577  -0.5577  -0.5438  -0.5437  -0.5333  -0.5333  -0.5327
    -0.5309  -0.5308  -0.5127  -0.5117  -0.5117  -0.4773  -0.4763  -0.4763
    -0.4660  -0.4660  -0.4459  -0.4121  -0.4121  -0.4029  -0.4029  -0.3345
    -0.3345  -0.3027  -0.3027  -0.2445  -0.2444  -0.2438  -0.2277  -0.2216
     0.0181   0.0181   0.3619   0.3619   0.4625   0.4625   0.6585   0.6595
     0.6797   0.7987   0.7987   1.2426   1.2426   1.2475   1.5191   1.5530
     1.5530   1.8304   1.8304   1.8959   1.8959   1.9465   1.9465   2.1533
     2.1533   2.2538   2.2538   2.3276   2.3926   2.3926   2.5658   2.6541
     3.0867   3.0867   3.1054   3.1054   3.1539   3.1539   3.4480   3.4480
     3.7279   3.7279   3.8357   4.1445   4.1927   4.1927   4.4116   4.4116
     4.4805   4.4805   4.5738   4.6945   4.6945   4.8143   4.8143   5.1100
     5.1935   5.1935   5.3616   5.3616   5.4986   5.5684   5.5684   5.6026
     5.6026   5.6552   5.6552   5.7161   6.0422   6.0429   6.2677   6.3259
     6.3259   6.3963   6.3963   6.4236   6.4236   6.5825   6.6528   6.6528
     6.7551   6.8967   6.8967   6.9073   6.9073   7.1173

          k =-0.2500-0.4330 0.1111 (136853 PWs)   bands (ev):

    -6.3755  -5.9759  -5.9759  -5.3303  -4.9630  -4.9630  -4.9575  -4.9575
    -4.5618  -4.5618  -4.4641  -4.4641  -4.4479  -4.4261  -4.4254  -4.2956
    -4.2953  -4.2728  -4.2315  -4.2315  -4.1829  -4.1829  -4.1691  -4.1691
    -4.1320  -4.1298  -4.1297  -4.0694  -4.0694  -4.0271  -4.0271  -4.0112
    -4.0111  -3.9886  -3.9886  -3.9667  -3.9567  -3.9565  -3.9503  -3.8818
    -3.8818  -3.8302  -3.8302  -3.7983  -3.7982  -3.7382  -3.7382  -3.7161
    -3.7161  -3.6761  -3.6671  -3.6671  -3.6368  -3.6333  -3.6332  -3.6318
    -3.6317  -3.6185  -3.5558  -3.5558  -3.5530  -3.5137  -3.4923  -3.4317
    -3.4317  -3.4183  -3.4183  -3.3936  -3.3936  -3.3495  -3.3491  -3.3010
    -3.3010  -3.2794  -3.2793  -3.2394  -3.2325  -3.2325  -3.1794  -3.1582
    -3.1581  -3.1363  -3.1362  -3.1335  -3.1335  -3.1306  -3.1306  -3.1218
    -3.0775  -3.0106  -3.0105  -3.0022  -3.0022  -2.9840  -2.9796  -2.9795
    -2.9734  -2.9005  -2.9004  -2.8883  -2.8674  -2.8446  -2.8445  -2.8371
    -2.8075  -2.8075  -2.7735  -2.7404  -2.7404  -2.7293  -2.7159  -2.6966
    -2.6966  -2.6539  -2.6539  -2.6127  -2.5884  -2.5884  -2.5706  -2.5706
    -2.5523  -2.5522  -2.5399  -2.5277  -2.5277  -2.4831  -2.4735  -2.4735
    -2.4698  -2.4698  -2.4538  -2.4430  -2.4427  -2.4426  -2.4382  -2.4356
    -2.4293  -2.4277  -2.4276  -2.3858  -2.3824  -2.3824  -2.3815  -2.3815
    -2.3769  -2.3768  -2.3602  -2.3531  -2.3399  -2.3399  -2.3084  -2.3084
    -2.3069  -2.3069  -2.3045  -2.3045  -2.2889  -2.2889  -2.2883  -2.2883
    -2.2762  -2.2359  -2.2359  -2.1916  -2.1916  -2.1755  -2.1755  -2.1568
    -2.1567  -2.1204  -2.1203  -2.1059  -2.1053  -2.0678  -2.0558  -2.0558
    -2.0557  -2.0414  -2.0414  -2.0409  -2.0409  -2.0101  -2.0004  -1.9946
    -1.9356  -1.9336  -1.9335  -1.9292  -1.9291  -1.8968  -1.8783  -1.8783
    -1.8552  -1.8552  -1.7955  -1.7955  -1.7582  -1.7363  -1.7363  -1.6837
    -1.6837  -1.6740  -1.6740  -1.6545  -1.6487  -1.6487  -1.6405  -1.6405
    -1.5772  -1.5772  -1.5700  -1.5700  -1.5606  -1.5542  -1.5542  -1.5203
    -1.5203  -1.4954  -1.4932  -1.4931  -1.4809  -1.4795  -1.4756  -1.4756
    -1.4510  -1.4510  -1.4170  -1.4170  -1.4019  -1.4019  -1.3662  -1.3518
    -1.3264  -1.3264  -1.3068  -1.2925  -1.2925  -1.2549  -1.2071  -1.2071
    -1.2064  -1.2064  -1.1978  -1.1978  -1.1871  -1.1690  -1.1690  -1.1274
    -1.1274  -1.1059  -1.1059  -1.1015  -1.1015  -1.0937  -1.0678  -1.0678
    -1.0674  -1.0674  -1.0649  -1.0271  -1.0271  -1.0245  -1.0245  -0.9956
    -0.9920  -0.9920  -0.9660  -0.9525  -0.9525  -0.9172  -0.9008  -0.9008
    -0.8646  -0.8633  -0.8494  -0.8494  -0.8419  -0.8419  -0.8349  -0.8349
    -0.8285  -0.8285  -0.8045  -0.8045  -0.8010  -0.7922  -0.7922  -0.7625
    -0.7625  -0.7532  -0.7532  -0.7282  -0.7221  -0.7221  -0.7200  -0.6579
    -0.6548  -0.6479  -0.6479  -0.6427  -0.6427  -0.6365  -0.6205  -0.6204
    -0.6119  -0.6119  -0.6090  -0.6090  -0.5697  -0.5674  -0.5674  -0.5588
    -0.5588  -0.5544  -0.5521  -0.5436  -0.5365  -0.5354  -0.5353  -0.4952
    -0.4952  -0.4843  -0.4781  -0.4781  -0.4024  -0.4024  -0.3965  -0.3964
    -0.3887  -0.3887  -0.3517  -0.3421  -0.3421  -0.3099  -0.3099  -0.3070
    -0.1949  -0.1949  -0.0927   0.3337   0.3337   0.3368   0.3368   0.4059
     0.4059   0.7745   0.7745   0.8167   0.8167   0.9380   1.0285   1.1419
     1.1419   1.3520   1.3520   1.9948   1.9948   2.1574   2.1574   2.2782
     2.2782   2.3831   2.3831   2.5382   2.7733   2.7818   2.8963   3.1220
     3.1220   3.1938   3.1938   3.2954   3.3218   3.5219   3.5219   3.5657
     3.7797   3.7797   3.8409   3.8410   4.0913   4.1055   4.1055   4.3475
     4.3948   4.3948   4.4359   4.7672   4.7672   4.8089   4.9447   5.1116
     5.1116   5.1783   5.1784   5.6313   5.8926   5.9031   5.9032   5.9131
     5.9131   5.9646   5.9646   6.0672   6.0710   6.1104   6.1383   6.1383
     6.1610   6.1610   6.1863   6.1863   6.2214   6.5782   6.5799   6.7510
     6.7617   6.7620   6.8405   6.8408   6.8484   6.9756

          k =-0.2500 0.4330-0.1111 (136853 PWs)   bands (ev):

    -6.3755  -5.9783  -5.9735  -5.3303  -4.9643  -4.9618  -4.9598  -4.9553
    -4.5628  -4.5607  -4.4643  -4.4640  -4.4475  -4.4261  -4.4254  -4.2964
    -4.2947  -4.2729  -4.2317  -4.2313  -4.1836  -4.1818  -4.1695  -4.1690
    -4.1319  -4.1315  -4.1281  -4.0713  -4.0675  -4.0284  -4.0254  -4.0114
    -4.0108  -3.9886  -3.9885  -3.9667  -3.9569  -3.9564  -3.9505  -3.8822
    -3.8816  -3.8319  -3.8286  -3.7985  -3.7980  -3.7387  -3.7376  -3.7162
    -3.7160  -3.6763  -3.6673  -3.6671  -3.6367  -3.6335  -3.6329  -3.6324
    -3.6313  -3.6185  -3.5560  -3.5556  -3.5528  -3.5135  -3.4920  -3.4326
    -3.4312  -3.4185  -3.4178  -3.3942  -3.3928  -3.3496  -3.3490  -3.3014
    -3.3009  -3.2796  -3.2788  -3.2394  -3.2326  -3.2324  -3.1792  -3.1587
    -3.1577  -3.1368  -3.1366  -3.1332  -3.1327  -3.1312  -3.1301  -3.1220
    -3.0774  -3.0116  -3.0096  -3.0024  -3.0018  -2.9839  -2.9799  -2.9792
    -2.9735  -2.9017  -2.8992  -2.8886  -2.8672  -2.8455  -2.8435  -2.8370
    -2.8081  -2.8073  -2.7736  -2.7406  -2.7397  -2.7293  -2.7159  -2.6968
    -2.6965  -2.6541  -2.6537  -2.6125  -2.5888  -2.5883  -2.5708  -2.5706
    -2.5526  -2.5517  -2.5400  -2.5283  -2.5274  -2.4831  -2.4738  -2.4726
    -2.4709  -2.4688  -2.4537  -2.4434  -2.4427  -2.4424  -2.4380  -2.4356
    -2.4294  -2.4283  -2.4267  -2.3855  -2.3827  -2.3823  -2.3816  -2.3813
    -2.3770  -2.3764  -2.3602  -2.3534  -2.3400  -2.3397  -2.3091  -2.3081
    -2.3071  -2.3065  -2.3045  -2.3045  -2.2896  -2.2888  -2.2882  -2.2879
    -2.2762  -2.2366  -2.2356  -2.1932  -2.1902  -2.1765  -2.1746  -2.1567
    -2.1562  -2.1205  -2.1201  -2.1059  -2.1052  -2.0676  -2.0561  -2.0559
    -2.0552  -2.0418  -2.0413  -2.0409  -2.0408  -2.0101  -2.0003  -1.9941
    -1.9356  -1.9341  -1.9335  -1.9295  -1.9291  -1.8969  -1.8794  -1.8771
    -1.8555  -1.8550  -1.7963  -1.7945  -1.7586  -1.7365  -1.7360  -1.6843
    -1.6831  -1.6743  -1.6737  -1.6546  -1.6490  -1.6484  -1.6407  -1.6404
    -1.5775  -1.5767  -1.5703  -1.5697  -1.5610  -1.5543  -1.5539  -1.5205
    -1.5202  -1.4955  -1.4935  -1.4928  -1.4807  -1.4796  -1.4760  -1.4752
    -1.4517  -1.4502  -1.4170  -1.4167  -1.4019  -1.4017  -1.3660  -1.3519
    -1.3273  -1.3258  -1.3070  -1.2928  -1.2923  -1.2550  -1.2071  -1.2070
    -1.2067  -1.2064  -1.1984  -1.1977  -1.1871  -1.1695  -1.1684  -1.1277
    -1.1270  -1.1060  -1.1059  -1.1020  -1.1011  -1.0936  -1.0682  -1.0678
    -1.0674  -1.0668  -1.0647  -1.0275  -1.0270  -1.0246  -1.0243  -0.9953
    -0.9922  -0.9917  -0.9664  -0.9528  -0.9520  -0.9173  -0.9009  -0.9006
    -0.8647  -0.8631  -0.8499  -0.8490  -0.8419  -0.8417  -0.8351  -0.8348
    -0.8287  -0.8284  -0.8051  -0.8039  -0.8011  -0.7925  -0.7920  -0.7625
    -0.7622  -0.7533  -0.7530  -0.7284  -0.7223  -0.7221  -0.7197  -0.6577
    -0.6547  -0.6482  -0.6478  -0.6429  -0.6426  -0.6364  -0.6206  -0.6203
    -0.6121  -0.6118  -0.6090  -0.6087  -0.5698  -0.5676  -0.5672  -0.5591
    -0.5586  -0.5545  -0.5521  -0.5434  -0.5365  -0.5357  -0.5351  -0.4955
    -0.4949  -0.4844  -0.4782  -0.4780  -0.4025  -0.4023  -0.3965  -0.3963
    -0.3888  -0.3886  -0.3516  -0.3422  -0.3420  -0.3104  -0.3094  -0.3070
    -0.1950  -0.1948  -0.0927   0.3336   0.3339   0.3363   0.3372   0.4053
     0.4063   0.7743   0.7748   0.8159   0.8173   0.9380   1.0285   1.1414
     1.1426   1.3513   1.3526   1.9941   1.9953   2.1567   2.1583   2.2777
     2.2788   2.3823   2.3839   2.5380   2.7735   2.7818   2.8963   3.1213
     3.1226   3.1927   3.1949   3.2953   3.3218   3.5207   3.5230   3.5659
     3.7789   3.7806   3.8403   3.8417   4.0909   4.1050   4.1061   4.3481
     4.3937   4.3956   4.4356   4.7663   4.7680   4.8083   4.9449   5.1110
     5.1122   5.1773   5.1793   5.6313   5.8926   5.9030   5.9033   5.9123
     5.9139   5.9641   5.9649   6.0673   6.0708   6.1103   6.1379   6.1387
     6.1606   6.1615   6.1861   6.1869   6.2214   6.5782   6.5799   6.7510
     6.7617   6.7620   6.8402   6.8415   6.8479   6.9758

          k = 0.2500-0.4330-0.1111 (136853 PWs)   bands (ev):

    -6.3755  -5.9783  -5.9735  -5.3303  -4.9643  -4.9618  -4.9598  -4.9553
    -4.5628  -4.5607  -4.4644  -4.4640  -4.4475  -4.4261  -4.4254  -4.2964
    -4.2947  -4.2729  -4.2317  -4.2313  -4.1836  -4.1818  -4.1695  -4.1690
    -4.1319  -4.1315  -4.1281  -4.0713  -4.0675  -4.0284  -4.0254  -4.0114
    -4.0108  -3.9886  -3.9885  -3.9667  -3.9569  -3.9564  -3.9505  -3.8822
    -3.8816  -3.8319  -3.8286  -3.7985  -3.7980  -3.7387  -3.7376  -3.7162
    -3.7160  -3.6763  -3.6673  -3.6671  -3.6367  -3.6335  -3.6329  -3.6324
    -3.6313  -3.6185  -3.5560  -3.5556  -3.5528  -3.5135  -3.4920  -3.4326
    -3.4312  -3.4185  -3.4178  -3.3942  -3.3928  -3.3496  -3.3490  -3.3014
    -3.3009  -3.2796  -3.2788  -3.2394  -3.2326  -3.2324  -3.1792  -3.1587
    -3.1577  -3.1368  -3.1366  -3.1332  -3.1327  -3.1312  -3.1301  -3.1220
    -3.0774  -3.0116  -3.0096  -3.0024  -3.0018  -2.9839  -2.9799  -2.9792
    -2.9735  -2.9017  -2.8992  -2.8886  -2.8672  -2.8455  -2.8435  -2.8370
    -2.8081  -2.8073  -2.7736  -2.7406  -2.7397  -2.7293  -2.7159  -2.6968
    -2.6965  -2.6541  -2.6537  -2.6125  -2.5888  -2.5883  -2.5708  -2.5706
    -2.5526  -2.5517  -2.5400  -2.5283  -2.5274  -2.4831  -2.4738  -2.4726
    -2.4709  -2.4688  -2.4537  -2.4434  -2.4427  -2.4424  -2.4380  -2.4356
    -2.4294  -2.4283  -2.4267  -2.3855  -2.3827  -2.3823  -2.3816  -2.3813
    -2.3770  -2.3764  -2.3602  -2.3534  -2.3400  -2.3397  -2.3091  -2.3081
    -2.3071  -2.3065  -2.3045  -2.3045  -2.2896  -2.2888  -2.2882  -2.2879
    -2.2762  -2.2366  -2.2356  -2.1932  -2.1902  -2.1765  -2.1746  -2.1567
    -2.1562  -2.1205  -2.1201  -2.1059  -2.1052  -2.0676  -2.0561  -2.0559
    -2.0552  -2.0418  -2.0412  -2.0409  -2.0408  -2.0101  -2.0003  -1.9941
    -1.9356  -1.9341  -1.9335  -1.9295  -1.9291  -1.8969  -1.8794  -1.8771
    -1.8555  -1.8550  -1.7963  -1.7945  -1.7586  -1.7365  -1.7360  -1.6843
    -1.6831  -1.6743  -1.6737  -1.6546  -1.6490  -1.6484  -1.6407  -1.6404
    -1.5775  -1.5767  -1.5703  -1.5697  -1.5610  -1.5543  -1.5539  -1.5205
    -1.5202  -1.4955  -1.4935  -1.4928  -1.4807  -1.4796  -1.4760  -1.4752
    -1.4517  -1.4502  -1.4170  -1.4167  -1.4019  -1.4017  -1.3660  -1.3519
    -1.3273  -1.3258  -1.3070  -1.2928  -1.2923  -1.2550  -1.2071  -1.2070
    -1.2067  -1.2064  -1.1984  -1.1977  -1.1871  -1.1695  -1.1684  -1.1277
    -1.1270  -1.1060  -1.1059  -1.1020  -1.1011  -1.0936  -1.0682  -1.0678
    -1.0674  -1.0668  -1.0647  -1.0275  -1.0270  -1.0246  -1.0243  -0.9953
    -0.9922  -0.9917  -0.9664  -0.9528  -0.9520  -0.9173  -0.9009  -0.9006
    -0.8647  -0.8631  -0.8499  -0.8490  -0.8419  -0.8417  -0.8351  -0.8348
    -0.8287  -0.8284  -0.8051  -0.8039  -0.8011  -0.7925  -0.7920  -0.7625
    -0.7622  -0.7533  -0.7530  -0.7284  -0.7223  -0.7221  -0.7197  -0.6577
    -0.6547  -0.6482  -0.6478  -0.6429  -0.6426  -0.6364  -0.6206  -0.6203
    -0.6121  -0.6118  -0.6090  -0.6087  -0.5698  -0.5676  -0.5672  -0.5591
    -0.5586  -0.5545  -0.5521  -0.5434  -0.5365  -0.5357  -0.5351  -0.4955
    -0.4949  -0.4844  -0.4782  -0.4780  -0.4025  -0.4023  -0.3965  -0.3963
    -0.3888  -0.3886  -0.3516  -0.3422  -0.3420  -0.3104  -0.3094  -0.3070
    -0.1950  -0.1948  -0.0927   0.3336   0.3339   0.3363   0.3372   0.4053
     0.4063   0.7743   0.7748   0.8159   0.8173   0.9380   1.0285   1.1414
     1.1426   1.3513   1.3526   1.9941   1.9953   2.1567   2.1583   2.2777
     2.2788   2.3823   2.3839   2.5380   2.7735   2.7818   2.8963   3.1213
     3.1226   3.1927   3.1949   3.2953   3.3218   3.5207   3.5230   3.5659
     3.7789   3.7806   3.8403   3.8417   4.0909   4.1050   4.1061   4.3481
     4.3937   4.3956   4.4356   4.7663   4.7680   4.8083   4.9449   5.1110
     5.1122   5.1773   5.1793   5.6313   5.8926   5.9030   5.9033   5.9123
     5.9139   5.9641   5.9649   6.0673   6.0708   6.1103   6.1379   6.1387
     6.1606   6.1615   6.1861   6.1869   6.2214   6.5782   6.5799   6.7510
     6.7617   6.7620   6.8402   6.8415   6.8479   6.9758

          k = 0.5000 0.0000 0.1111 (136853 PWs)   bands (ev):

    -6.3755  -5.9783  -5.9735  -5.3303  -4.9643  -4.9618  -4.9598  -4.9553
    -4.5628  -4.5607  -4.4643  -4.4640  -4.4475  -4.4261  -4.4254  -4.2964
    -4.2947  -4.2729  -4.2317  -4.2313  -4.1836  -4.1818  -4.1695  -4.1690
    -4.1319  -4.1315  -4.1281  -4.0713  -4.0675  -4.0284  -4.0254  -4.0114
    -4.0108  -3.9886  -3.9885  -3.9667  -3.9569  -3.9564  -3.9505  -3.8822
    -3.8816  -3.8319  -3.8286  -3.7985  -3.7980  -3.7387  -3.7376  -3.7162
    -3.7160  -3.6763  -3.6673  -3.6671  -3.6367  -3.6335  -3.6329  -3.6324
    -3.6313  -3.6185  -3.5560  -3.5556  -3.5528  -3.5135  -3.4920  -3.4326
    -3.4312  -3.4185  -3.4178  -3.3942  -3.3928  -3.3496  -3.3490  -3.3014
    -3.3009  -3.2796  -3.2788  -3.2394  -3.2326  -3.2324  -3.1792  -3.1587
    -3.1577  -3.1368  -3.1366  -3.1332  -3.1327  -3.1312  -3.1301  -3.1220
    -3.0774  -3.0116  -3.0096  -3.0024  -3.0018  -2.9839  -2.9799  -2.9792
    -2.9735  -2.9017  -2.8992  -2.8886  -2.8672  -2.8455  -2.8435  -2.8370
    -2.8081  -2.8073  -2.7736  -2.7406  -2.7397  -2.7293  -2.7159  -2.6968
    -2.6965  -2.6541  -2.6537  -2.6125  -2.5888  -2.5883  -2.5708  -2.5706
    -2.5526  -2.5517  -2.5400  -2.5283  -2.5274  -2.4831  -2.4738  -2.4726
    -2.4709  -2.4688  -2.4537  -2.4434  -2.4427  -2.4424  -2.4380  -2.4356
    -2.4294  -2.4283  -2.4267  -2.3855  -2.3827  -2.3823  -2.3816  -2.3813
    -2.3770  -2.3764  -2.3602  -2.3534  -2.3400  -2.3397  -2.3091  -2.3081
    -2.3071  -2.3065  -2.3045  -2.3045  -2.2896  -2.2888  -2.2882  -2.2879
    -2.2762  -2.2366  -2.2356  -2.1932  -2.1902  -2.1765  -2.1746  -2.1567
    -2.1562  -2.1205  -2.1201  -2.1059  -2.1052  -2.0676  -2.0561  -2.0559
    -2.0552  -2.0418  -2.0413  -2.0409  -2.0408  -2.0101  -2.0003  -1.9941
    -1.9356  -1.9341  -1.9335  -1.9295  -1.9291  -1.8969  -1.8794  -1.8771
    -1.8555  -1.8550  -1.7963  -1.7945  -1.7586  -1.7365  -1.7360  -1.6843
    -1.6831  -1.6743  -1.6737  -1.6546  -1.6490  -1.6484  -1.6407  -1.6404
    -1.5775  -1.5767  -1.5703  -1.5697  -1.5610  -1.5543  -1.5539  -1.5205
    -1.5202  -1.4955  -1.4935  -1.4928  -1.4807  -1.4796  -1.4760  -1.4752
    -1.4517  -1.4502  -1.4170  -1.4167  -1.4019  -1.4017  -1.3660  -1.3519
    -1.3273  -1.3258  -1.3070  -1.2928  -1.2923  -1.2550  -1.2071  -1.2070
    -1.2067  -1.2064  -1.1984  -1.1977  -1.1871  -1.1695  -1.1684  -1.1277
    -1.1270  -1.1060  -1.1059  -1.1020  -1.1011  -1.0936  -1.0682  -1.0678
    -1.0674  -1.0668  -1.0647  -1.0275  -1.0270  -1.0246  -1.0243  -0.9953
    -0.9922  -0.9917  -0.9664  -0.9528  -0.9520  -0.9173  -0.9009  -0.9006
    -0.8647  -0.8631  -0.8499  -0.8490  -0.8419  -0.8417  -0.8351  -0.8349
    -0.8287  -0.8284  -0.8051  -0.8039  -0.8011  -0.7925  -0.7920  -0.7625
    -0.7622  -0.7533  -0.7530  -0.7284  -0.7223  -0.7221  -0.7197  -0.6577
    -0.6547  -0.6482  -0.6478  -0.6429  -0.6426  -0.6364  -0.6206  -0.6203
    -0.6121  -0.6118  -0.6090  -0.6087  -0.5698  -0.5676  -0.5672  -0.5591
    -0.5586  -0.5545  -0.5521  -0.5434  -0.5365  -0.5357  -0.5351  -0.4955
    -0.4949  -0.4844  -0.4782  -0.4780  -0.4025  -0.4023  -0.3965  -0.3963
    -0.3888  -0.3886  -0.3516  -0.3422  -0.3420  -0.3104  -0.3094  -0.3070
    -0.1950  -0.1948  -0.0927   0.3336   0.3339   0.3363   0.3372   0.4053
     0.4063   0.7743   0.7748   0.8159   0.8173   0.9380   1.0285   1.1414
     1.1426   1.3513   1.3526   1.9941   1.9953   2.1567   2.1583   2.2777
     2.2788   2.3823   2.3839   2.5380   2.7735   2.7818   2.8963   3.1213
     3.1227   3.1927   3.1949   3.2953   3.3218   3.5207   3.5230   3.5659
     3.7789   3.7806   3.8403   3.8417   4.0909   4.1050   4.1061   4.3481
     4.3937   4.3956   4.4356   4.7663   4.7680   4.8083   4.9449   5.1110
     5.1122   5.1773   5.1793   5.6313   5.8926   5.9030   5.9033   5.9123
     5.9139   5.9641   5.9649   6.0673   6.0708   6.1103   6.1380   6.1387
     6.1606   6.1615   6.1861   6.1869   6.2214   6.5782   6.5799   6.7510
     6.7617   6.7620   6.8402   6.8415   6.8479   6.9758

          k =-0.5000 0.0000 0.1111 (136853 PWs)   bands (ev):

    -6.3755  -5.9783  -5.9735  -5.3303  -4.9643  -4.9618  -4.9598  -4.9553
    -4.5628  -4.5607  -4.4644  -4.4640  -4.4475  -4.4261  -4.4254  -4.2964
    -4.2947  -4.2729  -4.2317  -4.2313  -4.1836  -4.1818  -4.1695  -4.1690
    -4.1319  -4.1315  -4.1281  -4.0713  -4.0675  -4.0284  -4.0254  -4.0114
    -4.0108  -3.9886  -3.9885  -3.9667  -3.9569  -3.9564  -3.9505  -3.8822
    -3.8816  -3.8319  -3.8286  -3.7985  -3.7980  -3.7387  -3.7376  -3.7162
    -3.7160  -3.6763  -3.6673  -3.6671  -3.6367  -3.6335  -3.6329  -3.6324
    -3.6313  -3.6185  -3.5560  -3.5556  -3.5528  -3.5135  -3.4920  -3.4326
    -3.4312  -3.4185  -3.4178  -3.3942  -3.3928  -3.3496  -3.3490  -3.3014
    -3.3009  -3.2796  -3.2788  -3.2394  -3.2326  -3.2324  -3.1792  -3.1587
    -3.1577  -3.1368  -3.1366  -3.1332  -3.1327  -3.1312  -3.1301  -3.1220
    -3.0774  -3.0116  -3.0096  -3.0024  -3.0018  -2.9839  -2.9799  -2.9792
    -2.9735  -2.9017  -2.8992  -2.8886  -2.8672  -2.8455  -2.8435  -2.8370
    -2.8081  -2.8073  -2.7736  -2.7406  -2.7397  -2.7293  -2.7159  -2.6968
    -2.6965  -2.6541  -2.6537  -2.6125  -2.5888  -2.5883  -2.5708  -2.5706
    -2.5526  -2.5517  -2.5400  -2.5283  -2.5274  -2.4831  -2.4738  -2.4726
    -2.4709  -2.4688  -2.4537  -2.4434  -2.4427  -2.4424  -2.4380  -2.4356
    -2.4294  -2.4283  -2.4267  -2.3855  -2.3827  -2.3823  -2.3816  -2.3813
    -2.3770  -2.3764  -2.3602  -2.3534  -2.3400  -2.3397  -2.3091  -2.3081
    -2.3071  -2.3065  -2.3045  -2.3045  -2.2896  -2.2888  -2.2882  -2.2879
    -2.2762  -2.2366  -2.2356  -2.1932  -2.1902  -2.1765  -2.1746  -2.1567
    -2.1562  -2.1205  -2.1201  -2.1059  -2.1052  -2.0676  -2.0561  -2.0559
    -2.0552  -2.0418  -2.0413  -2.0409  -2.0408  -2.0101  -2.0003  -1.9941
    -1.9356  -1.9341  -1.9335  -1.9295  -1.9291  -1.8969  -1.8794  -1.8771
    -1.8555  -1.8550  -1.7963  -1.7945  -1.7586  -1.7365  -1.7360  -1.6843
    -1.6831  -1.6743  -1.6737  -1.6546  -1.6490  -1.6484  -1.6407  -1.6404
    -1.5775  -1.5767  -1.5703  -1.5697  -1.5610  -1.5543  -1.5539  -1.5205
    -1.5202  -1.4955  -1.4935  -1.4928  -1.4807  -1.4796  -1.4760  -1.4752
    -1.4517  -1.4502  -1.4170  -1.4167  -1.4019  -1.4017  -1.3660  -1.3519
    -1.3273  -1.3258  -1.3070  -1.2928  -1.2923  -1.2550  -1.2071  -1.2070
    -1.2067  -1.2064  -1.1984  -1.1977  -1.1871  -1.1695  -1.1684  -1.1277
    -1.1270  -1.1060  -1.1059  -1.1020  -1.1011  -1.0936  -1.0682  -1.0678
    -1.0674  -1.0668  -1.0647  -1.0275  -1.0270  -1.0246  -1.0243  -0.9953
    -0.9922  -0.9917  -0.9664  -0.9528  -0.9520  -0.9173  -0.9009  -0.9006
    -0.8647  -0.8631  -0.8499  -0.8490  -0.8419  -0.8417  -0.8351  -0.8348
    -0.8287  -0.8284  -0.8051  -0.8039  -0.8011  -0.7925  -0.7920  -0.7625
    -0.7622  -0.7533  -0.7530  -0.7284  -0.7223  -0.7221  -0.7197  -0.6577
    -0.6547  -0.6482  -0.6478  -0.6429  -0.6426  -0.6364  -0.6206  -0.6203
    -0.6121  -0.6118  -0.6090  -0.6087  -0.5698  -0.5676  -0.5672  -0.5591
    -0.5586  -0.5545  -0.5521  -0.5434  -0.5365  -0.5357  -0.5351  -0.4955
    -0.4949  -0.4844  -0.4782  -0.4780  -0.4025  -0.4023  -0.3965  -0.3963
    -0.3888  -0.3886  -0.3516  -0.3422  -0.3420  -0.3104  -0.3094  -0.3070
    -0.1950  -0.1948  -0.0927   0.3336   0.3339   0.3363   0.3372   0.4053
     0.4063   0.7743   0.7748   0.8159   0.8173   0.9380   1.0285   1.1414
     1.1426   1.3513   1.3526   1.9941   1.9953   2.1567   2.1583   2.2777
     2.2788   2.3823   2.3839   2.5380   2.7735   2.7818   2.8963   3.1213
     3.1227   3.1927   3.1949   3.2953   3.3218   3.5207   3.5230   3.5659
     3.7789   3.7806   3.8403   3.8417   4.0909   4.1050   4.1061   4.3481
     4.3937   4.3956   4.4356   4.7663   4.7680   4.8083   4.9449   5.1110
     5.1122   5.1773   5.1793   5.6313   5.8926   5.9030   5.9033   5.9123
     5.9139   5.9641   5.9649   6.0673   6.0708   6.1103   6.1380   6.1387
     6.1606   6.1615   6.1861   6.1869   6.2214   6.5782   6.5799   6.7510
     6.7617   6.7620   6.8402   6.8415   6.8479   6.9758

          k =-0.2500 0.1443 0.1111 (136898 PWs)   bands (ev):

    -6.5855  -5.7930  -5.5340  -5.4423  -5.4422  -4.9028  -4.9028  -4.8043
    -4.7704  -4.6236  -4.5979  -4.5239  -4.5218  -4.5218  -4.4571  -4.4571
    -4.3296  -4.2870  -4.2870  -4.2420  -4.2284  -4.2283  -4.0979  -4.0979
    -4.0676  -4.0675  -4.0674  -4.0447  -4.0159  -4.0158  -3.9273  -3.9113
    -3.9113  -3.8989  -3.8807  -3.8806  -3.8725  -3.8650  -3.8649  -3.8226
    -3.8226  -3.8122  -3.8122  -3.8078  -3.8078  -3.7792  -3.7690  -3.7690
    -3.7375  -3.7375  -3.6916  -3.6768  -3.6767  -3.6575  -3.6575  -3.5893
    -3.5893  -3.5698  -3.5569  -3.5569  -3.4819  -3.4819  -3.4760  -3.4760
    -3.4604  -3.4604  -3.4515  -3.4515  -3.2946  -3.2946  -3.2855  -3.2855
    -3.2800  -3.2382  -3.2382  -3.2294  -3.2294  -3.1734  -3.1734  -3.1627
    -3.1627  -3.1201  -3.0986  -3.0986  -3.0757  -3.0699  -3.0699  -3.0228
    -3.0228  -3.0106  -3.0106  -3.0000  -3.0000  -2.9610  -2.9610  -2.9345
    -2.9345  -2.9274  -2.9274  -2.9144  -2.8538  -2.8509  -2.8509  -2.8119
    -2.8119  -2.7502  -2.7502  -2.7210  -2.7151  -2.7073  -2.7073  -2.6983
    -2.6715  -2.6715  -2.6617  -2.6438  -2.6236  -2.6236  -2.6232  -2.6003
    -2.6003  -2.5919  -2.5919  -2.5915  -2.5915  -2.5670  -2.5239  -2.4999
    -2.4999  -2.4817  -2.4726  -2.4715  -2.4713  -2.4542  -2.4541  -2.4424
    -2.4201  -2.4177  -2.4177  -2.4084  -2.4084  -2.4060  -2.3724  -2.3693
    -2.3693  -2.3679  -2.3677  -2.3097  -2.2919  -2.2901  -2.2865  -2.2865
    -2.2659  -2.2659  -2.2617  -2.2381  -2.2380  -2.2247  -2.2123  -2.2123
    -2.1992  -2.1971  -2.1971  -2.1648  -2.1648  -2.1300  -2.1122  -2.1122
    -2.1090  -2.1045  -2.1042  -2.1040  -2.1013  -2.1013  -2.1001  -2.0998
    -2.0743  -2.0743  -1.9478  -1.9478  -1.9145  -1.9145  -1.9115  -1.8971
    -1.8971  -1.8896  -1.8896  -1.8891  -1.8891  -1.8734  -1.8681  -1.8508
    -1.8507  -1.8445  -1.8444  -1.8434  -1.8103  -1.8103  -1.7942  -1.7942
    -1.7657  -1.7579  -1.7579  -1.7359  -1.7304  -1.7188  -1.7188  -1.7075
    -1.6908  -1.6908  -1.6785  -1.6785  -1.6510  -1.6510  -1.6359  -1.6359
    -1.6030  -1.6030  -1.5963  -1.5396  -1.5396  -1.5209  -1.5209  -1.5177
    -1.4892  -1.4871  -1.4610  -1.4596  -1.4596  -1.4295  -1.4241  -1.4240
    -1.4012  -1.4012  -1.3780  -1.3712  -1.3711  -1.3419  -1.3291  -1.3291
    -1.2698  -1.2698  -1.2669  -1.2669  -1.2390  -1.2389  -1.2281  -1.2264
    -1.2264  -1.2115  -1.1730  -1.1730  -1.1599  -1.1235  -1.1233  -1.1232
    -1.1218  -1.1193  -1.1193  -1.0963  -1.0963  -1.0955  -1.0562  -1.0562
    -1.0447  -1.0447  -1.0384  -1.0384  -1.0201  -0.9993  -0.9993  -0.9772
    -0.9772  -0.8910  -0.8756  -0.8740  -0.8740  -0.8723  -0.8657  -0.8657
    -0.8442  -0.8374  -0.8161  -0.8161  -0.8091  -0.8091  -0.7936  -0.7756
    -0.7729  -0.7729  -0.7652  -0.6945  -0.6945  -0.6577  -0.6577  -0.6522
    -0.6494  -0.6494  -0.6437  -0.6437  -0.6340  -0.6340  -0.6187  -0.5884
    -0.5790  -0.5577  -0.5577  -0.5438  -0.5437  -0.5333  -0.5333  -0.5327
    -0.5309  -0.5308  -0.5127  -0.5117  -0.5117  -0.4773  -0.4763  -0.4763
    -0.4660  -0.4660  -0.4459  -0.4121  -0.4120  -0.4029  -0.4029  -0.3345
    -0.3345  -0.3027  -0.3027  -0.2445  -0.2444  -0.2438  -0.2277  -0.2216
     0.0181   0.0181   0.3619   0.3619   0.4625   0.4626   0.6585   0.6595
     0.6797   0.7987   0.7987   1.2426   1.2426   1.2475   1.5191   1.5530
     1.5530   1.8304   1.8304   1.8959   1.8959   1.9465   1.9465   2.1533
     2.1533   2.2538   2.2538   2.3276   2.3926   2.3926   2.5658   2.6541
     3.0867   3.0867   3.1054   3.1054   3.1539   3.1539   3.4480   3.4480
     3.7279   3.7279   3.8357   4.1445   4.1927   4.1927   4.4116   4.4116
     4.4805   4.4805   4.5738   4.6945   4.6945   4.8143   4.8143   5.1100
     5.1935   5.1935   5.3616   5.3616   5.4986   5.5684   5.5684   5.6026
     5.6026   5.6552   5.6552   5.7161   6.0419   6.0428   6.2677   6.3262
     6.3262   6.3963   6.3963   6.4236   6.4236   6.5831   6.6528   6.6528
     6.7596   6.8966   6.8966   6.9068   6.9068   7.1114

          k =-0.2500-0.1443-0.1111 (136898 PWs)   bands (ev):

    -6.5855  -5.7930  -5.5340  -5.4423  -5.4422  -4.9027  -4.9027  -4.8043
    -4.7705  -4.6236  -4.5979  -4.5240  -4.5219  -4.5218  -4.4572  -4.4569
    -4.3295  -4.2873  -4.2868  -4.2418  -4.2284  -4.2283  -4.0979  -4.0978
    -4.0676  -4.0675  -4.0674  -4.0447  -4.0161  -4.0155  -3.9273  -3.9115
    -3.9111  -3.8988  -3.8809  -3.8806  -3.8724  -3.8650  -3.8650  -3.8226
    -3.8225  -3.8122  -3.8120  -3.8080  -3.8076  -3.7791  -3.7690  -3.7689
    -3.7377  -3.7374  -3.6918  -3.6767  -3.6767  -3.6576  -3.6574  -3.5894
    -3.5893  -3.5696  -3.5569  -3.5567  -3.4818  -3.4817  -3.4763  -3.4761
    -3.4605  -3.4603  -3.4517  -3.4516  -3.2947  -3.2946  -3.2857  -3.2854
    -3.2800  -3.2383  -3.2382  -3.2295  -3.2291  -3.1735  -3.1735  -3.1628
    -3.1626  -3.1200  -3.0987  -3.0983  -3.0758  -3.0700  -3.0699  -3.0229
    -3.0228  -3.0108  -3.0106  -3.0000  -3.0000  -2.9608  -2.9607  -2.9345
    -2.9344  -2.9275  -2.9273  -2.9143  -2.8540  -2.8510  -2.8509  -2.8120
    -2.8119  -2.7505  -2.7498  -2.7210  -2.7149  -2.7072  -2.7071  -2.6985
    -2.6716  -2.6713  -2.6617  -2.6438  -2.6237  -2.6235  -2.6234  -2.6003
    -2.6003  -2.5925  -2.5920  -2.5915  -2.5911  -2.5670  -2.5238  -2.5000
    -2.4999  -2.4816  -2.4727  -2.4715  -2.4714  -2.4543  -2.4542  -2.4425
    -2.4202  -2.4178  -2.4174  -2.4086  -2.4081  -2.4058  -2.3727  -2.3695
    -2.3693  -2.3677  -2.3675  -2.3098  -2.2919  -2.2903  -2.2867  -2.2865
    -2.2659  -2.2656  -2.2618  -2.2379  -2.2379  -2.2246  -2.2123  -2.2121
    -2.1993  -2.1971  -2.1971  -2.1648  -2.1647  -2.1300  -2.1122  -2.1120
    -2.1087  -2.1046  -2.1042  -2.1041  -2.1014  -2.1009  -2.1004  -2.0999
    -2.0744  -2.0744  -1.9478  -1.9478  -1.9145  -1.9145  -1.9115  -1.8970
    -1.8970  -1.8906  -1.8896  -1.8892  -1.8890  -1.8728  -1.8681  -1.8507
    -1.8506  -1.8445  -1.8439  -1.8435  -1.8106  -1.8106  -1.7948  -1.7938
    -1.7656  -1.7579  -1.7579  -1.7359  -1.7301  -1.7188  -1.7187  -1.7074
    -1.6910  -1.6909  -1.6788  -1.6785  -1.6508  -1.6508  -1.6363  -1.6356
    -1.6032  -1.6031  -1.5964  -1.5400  -1.5392  -1.5208  -1.5208  -1.5181
    -1.4895  -1.4869  -1.4609  -1.4596  -1.4593  -1.4296  -1.4240  -1.4239
    -1.4012  -1.4010  -1.3779  -1.3713  -1.3712  -1.3420  -1.3290  -1.3290
    -1.2700  -1.2700  -1.2669  -1.2669  -1.2393  -1.2386  -1.2276  -1.2261
    -1.2261  -1.2113  -1.1732  -1.1728  -1.1599  -1.1233  -1.1232  -1.1232
    -1.1222  -1.1195  -1.1194  -1.0965  -1.0965  -1.0954  -1.0564  -1.0560
    -1.0448  -1.0445  -1.0386  -1.0382  -1.0201  -0.9995  -0.9995  -0.9771
    -0.9771  -0.8908  -0.8757  -0.8740  -0.8739  -0.8720  -0.8661  -0.8657
    -0.8442  -0.8371  -0.8163  -0.8161  -0.8091  -0.8091  -0.7938  -0.7758
    -0.7727  -0.7727  -0.7653  -0.6945  -0.6944  -0.6576  -0.6576  -0.6522
    -0.6495  -0.6494  -0.6438  -0.6437  -0.6341  -0.6338  -0.6187  -0.5883
    -0.5791  -0.5577  -0.5577  -0.5438  -0.5438  -0.5334  -0.5331  -0.5327
    -0.5309  -0.5309  -0.5126  -0.5119  -0.5117  -0.4773  -0.4763  -0.4760
    -0.4661  -0.4659  -0.4459  -0.4121  -0.4120  -0.4028  -0.4028  -0.3346
    -0.3346  -0.3031  -0.3024  -0.2447  -0.2444  -0.2437  -0.2280  -0.2216
     0.0182   0.0183   0.3619   0.3619   0.4625   0.4627   0.6582   0.6595
     0.6797   0.7987   0.7987   1.2425   1.2427   1.2477   1.5191   1.5530
     1.5531   1.8304   1.8304   1.8958   1.8960   1.9464   1.9465   2.1529
     2.1535   2.2538   2.2538   2.3276   2.3925   2.3926   2.5656   2.6542
     3.0867   3.0868   3.1054   3.1056   3.1538   3.1542   3.4477   3.4483
     3.7279   3.7279   3.8357   4.1445   4.1924   4.1926   4.4116   4.4116
     4.4803   4.4808   4.5738   4.6942   4.6947   4.8146   4.8148   5.1100
     5.1934   5.1936   5.3616   5.3616   5.4986   5.5680   5.5682   5.6024
     5.6026   5.6549   5.6558   5.7161   6.0419   6.0428   6.2672   6.3261
     6.3262   6.3960   6.3966   6.4238   6.4239   6.5831   6.6526   6.6529
     6.7596   6.8967   6.8967   6.9067   6.9068   7.1113

          k = 0.2500 0.1443-0.1111 (136898 PWs)   bands (ev):

    -6.5855  -5.7930  -5.5340  -5.4423  -5.4422  -4.9027  -4.9027  -4.8043
    -4.7705  -4.6236  -4.5979  -4.5240  -4.5219  -4.5218  -4.4572  -4.4568
    -4.3295  -4.2873  -4.2868  -4.2418  -4.2284  -4.2283  -4.0979  -4.0978
    -4.0676  -4.0675  -4.0674  -4.0447  -4.0161  -4.0155  -3.9273  -3.9115
    -3.9111  -3.8988  -3.8809  -3.8806  -3.8724  -3.8650  -3.8650  -3.8226
    -3.8225  -3.8121  -3.8120  -3.8080  -3.8076  -3.7791  -3.7690  -3.7690
    -3.7377  -3.7374  -3.6918  -3.6767  -3.6767  -3.6576  -3.6574  -3.5894
    -3.5893  -3.5696  -3.5569  -3.5567  -3.4818  -3.4817  -3.4763  -3.4761
    -3.4605  -3.4603  -3.4517  -3.4516  -3.2947  -3.2946  -3.2857  -3.2854
    -3.2800  -3.2383  -3.2382  -3.2295  -3.2291  -3.1735  -3.1735  -3.1627
    -3.1626  -3.1200  -3.0987  -3.0983  -3.0758  -3.0700  -3.0699  -3.0229
    -3.0228  -3.0108  -3.0106  -3.0000  -3.0000  -2.9608  -2.9607  -2.9345
    -2.9344  -2.9275  -2.9273  -2.9143  -2.8540  -2.8510  -2.8509  -2.8120
    -2.8119  -2.7505  -2.7498  -2.7211  -2.7149  -2.7072  -2.7071  -2.6985
    -2.6716  -2.6713  -2.6617  -2.6438  -2.6237  -2.6235  -2.6234  -2.6003
    -2.6003  -2.5925  -2.5920  -2.5915  -2.5911  -2.5670  -2.5238  -2.5000
    -2.4999  -2.4816  -2.4727  -2.4715  -2.4714  -2.4543  -2.4542  -2.4425
    -2.4202  -2.4178  -2.4174  -2.4086  -2.4081  -2.4058  -2.3727  -2.3695
    -2.3693  -2.3677  -2.3675  -2.3099  -2.2919  -2.2903  -2.2866  -2.2865
    -2.2659  -2.2656  -2.2618  -2.2379  -2.2379  -2.2246  -2.2123  -2.2121
    -2.1993  -2.1971  -2.1971  -2.1648  -2.1647  -2.1300  -2.1122  -2.1120
    -2.1087  -2.1046  -2.1042  -2.1041  -2.1014  -2.1009  -2.1004  -2.0999
    -2.0744  -2.0744  -1.9478  -1.9478  -1.9145  -1.9145  -1.9115  -1.8970
    -1.8970  -1.8906  -1.8896  -1.8892  -1.8890  -1.8728  -1.8681  -1.8507
    -1.8506  -1.8445  -1.8439  -1.8435  -1.8106  -1.8106  -1.7948  -1.7938
    -1.7656  -1.7579  -1.7579  -1.7359  -1.7301  -1.7188  -1.7187  -1.7074
    -1.6910  -1.6909  -1.6787  -1.6785  -1.6508  -1.6508  -1.6363  -1.6356
    -1.6032  -1.6031  -1.5964  -1.5400  -1.5392  -1.5209  -1.5208  -1.5181
    -1.4895  -1.4869  -1.4609  -1.4596  -1.4593  -1.4296  -1.4240  -1.4239
    -1.4012  -1.4010  -1.3779  -1.3713  -1.3712  -1.3420  -1.3290  -1.3290
    -1.2700  -1.2700  -1.2669  -1.2669  -1.2393  -1.2386  -1.2276  -1.2261
    -1.2261  -1.2113  -1.1732  -1.1728  -1.1599  -1.1233  -1.1232  -1.1232
    -1.1222  -1.1195  -1.1194  -1.0965  -1.0965  -1.0954  -1.0564  -1.0560
    -1.0448  -1.0445  -1.0386  -1.0382  -1.0201  -0.9995  -0.9995  -0.9771
    -0.9771  -0.8908  -0.8757  -0.8740  -0.8739  -0.8721  -0.8661  -0.8657
    -0.8442  -0.8371  -0.8163  -0.8160  -0.8091  -0.8091  -0.7938  -0.7758
    -0.7727  -0.7727  -0.7653  -0.6945  -0.6944  -0.6577  -0.6576  -0.6522
    -0.6495  -0.6494  -0.6438  -0.6437  -0.6341  -0.6338  -0.6187  -0.5883
    -0.5791  -0.5577  -0.5577  -0.5438  -0.5437  -0.5334  -0.5331  -0.5327
    -0.5309  -0.5309  -0.5126  -0.5119  -0.5117  -0.4773  -0.4763  -0.4760
    -0.4661  -0.4659  -0.4460  -0.4121  -0.4120  -0.4028  -0.4028  -0.3346
    -0.3346  -0.3031  -0.3024  -0.2447  -0.2444  -0.2436  -0.2280  -0.2216
     0.0182   0.0183   0.3619   0.3619   0.4625   0.4627   0.6582   0.6595
     0.6797   0.7987   0.7987   1.2425   1.2427   1.2478   1.5191   1.5530
     1.5531   1.8304   1.8304   1.8958   1.8960   1.9464   1.9465   2.1529
     2.1535   2.2538   2.2538   2.3276   2.3925   2.3926   2.5656   2.6542
     3.0867   3.0868   3.1054   3.1056   3.1538   3.1542   3.4477   3.4483
     3.7279   3.7279   3.8357   4.1445   4.1924   4.1926   4.4116   4.4116
     4.4803   4.4808   4.5738   4.6942   4.6947   4.8146   4.8148   5.1100
     5.1934   5.1936   5.3616   5.3616   5.4986   5.5680   5.5682   5.6024
     5.6026   5.6549   5.6558   5.7161   6.0422   6.0429   6.2672   6.3258
     6.3259   6.3960   6.3966   6.4238   6.4239   6.5825   6.6526   6.6529
     6.7551   6.8967   6.8968   6.9072   6.9073   7.1173

          k = 0.0000-0.2887 0.1111 (136898 PWs)   bands (ev):

    -6.5855  -5.7930  -5.5340  -5.4423  -5.4422  -4.9027  -4.9027  -4.8043
    -4.7705  -4.6236  -4.5979  -4.5240  -4.5219  -4.5218  -4.4572  -4.4568
    -4.3295  -4.2873  -4.2868  -4.2418  -4.2284  -4.2283  -4.0979  -4.0978
    -4.0676  -4.0675  -4.0674  -4.0447  -4.0161  -4.0155  -3.9273  -3.9115
    -3.9111  -3.8988  -3.8809  -3.8806  -3.8724  -3.8650  -3.8650  -3.8226
    -3.8225  -3.8122  -3.8120  -3.8080  -3.8076  -3.7791  -3.7690  -3.7689
    -3.7377  -3.7374  -3.6918  -3.6767  -3.6767  -3.6576  -3.6574  -3.5894
    -3.5893  -3.5696  -3.5569  -3.5567  -3.4818  -3.4817  -3.4763  -3.4761
    -3.4605  -3.4603  -3.4517  -3.4516  -3.2947  -3.2946  -3.2857  -3.2854
    -3.2800  -3.2383  -3.2382  -3.2295  -3.2291  -3.1735  -3.1735  -3.1628
    -3.1626  -3.1200  -3.0987  -3.0983  -3.0758  -3.0700  -3.0699  -3.0229
    -3.0228  -3.0108  -3.0106  -3.0000  -3.0000  -2.9608  -2.9607  -2.9345
    -2.9344  -2.9275  -2.9273  -2.9143  -2.8540  -2.8510  -2.8509  -2.8120
    -2.8119  -2.7505  -2.7498  -2.7210  -2.7149  -2.7072  -2.7071  -2.6985
    -2.6716  -2.6713  -2.6617  -2.6438  -2.6237  -2.6235  -2.6234  -2.6003
    -2.6003  -2.5925  -2.5920  -2.5915  -2.5911  -2.5670  -2.5238  -2.5000
    -2.4999  -2.4816  -2.4727  -2.4715  -2.4714  -2.4543  -2.4542  -2.4425
    -2.4202  -2.4178  -2.4174  -2.4086  -2.4081  -2.4058  -2.3727  -2.3695
    -2.3693  -2.3677  -2.3675  -2.3098  -2.2919  -2.2903  -2.2867  -2.2865
    -2.2659  -2.2656  -2.2618  -2.2379  -2.2379  -2.2246  -2.2123  -2.2121
    -2.1993  -2.1971  -2.1971  -2.1648  -2.1647  -2.1300  -2.1122  -2.1120
    -2.1087  -2.1046  -2.1042  -2.1041  -2.1014  -2.1009  -2.1004  -2.0999
    -2.0744  -2.0744  -1.9478  -1.9478  -1.9145  -1.9145  -1.9115  -1.8970
    -1.8970  -1.8906  -1.8896  -1.8892  -1.8890  -1.8728  -1.8681  -1.8507
    -1.8506  -1.8445  -1.8439  -1.8435  -1.8106  -1.8106  -1.7948  -1.7938
    -1.7656  -1.7579  -1.7579  -1.7359  -1.7301  -1.7188  -1.7187  -1.7074
    -1.6910  -1.6909  -1.6788  -1.6785  -1.6508  -1.6508  -1.6363  -1.6356
    -1.6032  -1.6031  -1.5964  -1.5400  -1.5392  -1.5208  -1.5208  -1.5181
    -1.4895  -1.4869  -1.4609  -1.4596  -1.4593  -1.4296  -1.4240  -1.4239
    -1.4012  -1.4010  -1.3779  -1.3713  -1.3712  -1.3420  -1.3290  -1.3290
    -1.2700  -1.2700  -1.2669  -1.2669  -1.2393  -1.2386  -1.2276  -1.2261
    -1.2261  -1.2113  -1.1732  -1.1728  -1.1599  -1.1233  -1.1232  -1.1232
    -1.1222  -1.1195  -1.1194  -1.0965  -1.0965  -1.0954  -1.0564  -1.0560
    -1.0448  -1.0445  -1.0386  -1.0382  -1.0201  -0.9995  -0.9995  -0.9771
    -0.9771  -0.8908  -0.8757  -0.8740  -0.8739  -0.8720  -0.8661  -0.8657
    -0.8442  -0.8371  -0.8163  -0.8161  -0.8091  -0.8091  -0.7938  -0.7758
    -0.7727  -0.7727  -0.7653  -0.6945  -0.6944  -0.6576  -0.6576  -0.6522
    -0.6495  -0.6494  -0.6438  -0.6437  -0.6341  -0.6338  -0.6187  -0.5883
    -0.5791  -0.5577  -0.5577  -0.5438  -0.5438  -0.5334  -0.5331  -0.5327
    -0.5309  -0.5309  -0.5126  -0.5119  -0.5117  -0.4773  -0.4763  -0.4760
    -0.4661  -0.4659  -0.4459  -0.4121  -0.4120  -0.4028  -0.4028  -0.3346
    -0.3346  -0.3031  -0.3024  -0.2447  -0.2444  -0.2437  -0.2280  -0.2216
     0.0182   0.0183   0.3619   0.3619   0.4625   0.4627   0.6582   0.6595
     0.6797   0.7987   0.7987   1.2425   1.2427   1.2477   1.5191   1.5530
     1.5531   1.8304   1.8304   1.8958   1.8960   1.9464   1.9465   2.1529
     2.1535   2.2538   2.2538   2.3276   2.3925   2.3926   2.5656   2.6542
     3.0867   3.0868   3.1054   3.1056   3.1538   3.1542   3.4477   3.4483
     3.7279   3.7279   3.8357   4.1445   4.1924   4.1926   4.4116   4.4116
     4.4803   4.4808   4.5738   4.6942   4.6947   4.8146   4.8148   5.1100
     5.1934   5.1936   5.3616   5.3616   5.4986   5.5680   5.5682   5.6024
     5.6026   5.6549   5.6558   5.7161   6.0419   6.0428   6.2672   6.3261
     6.3262   6.3960   6.3966   6.4238   6.4239   6.5831   6.6526   6.6529
     6.7596   6.8967   6.8967   6.9067   6.9068   7.1114

          k = 0.0000 0.2887 0.1111 (136898 PWs)   bands (ev):

    -6.5855  -5.7930  -5.5340  -5.4423  -5.4422  -4.9027  -4.9027  -4.8043
    -4.7705  -4.6236  -4.5979  -4.5240  -4.5219  -4.5218  -4.4572  -4.4568
    -4.3295  -4.2873  -4.2868  -4.2418  -4.2284  -4.2283  -4.0979  -4.0978
    -4.0676  -4.0675  -4.0674  -4.0447  -4.0161  -4.0155  -3.9273  -3.9115
    -3.9111  -3.8988  -3.8809  -3.8806  -3.8724  -3.8650  -3.8650  -3.8226
    -3.8225  -3.8121  -3.8120  -3.8080  -3.8076  -3.7791  -3.7690  -3.7690
    -3.7377  -3.7374  -3.6918  -3.6767  -3.6767  -3.6576  -3.6574  -3.5894
    -3.5893  -3.5696  -3.5569  -3.5567  -3.4818  -3.4817  -3.4763  -3.4761
    -3.4605  -3.4603  -3.4517  -3.4516  -3.2947  -3.2946  -3.2857  -3.2854
    -3.2800  -3.2383  -3.2382  -3.2295  -3.2291  -3.1735  -3.1735  -3.1627
    -3.1626  -3.1200  -3.0987  -3.0983  -3.0758  -3.0700  -3.0699  -3.0229
    -3.0228  -3.0108  -3.0106  -3.0000  -3.0000  -2.9608  -2.9607  -2.9345
    -2.9344  -2.9275  -2.9273  -2.9143  -2.8540  -2.8510  -2.8509  -2.8120
    -2.8119  -2.7505  -2.7498  -2.7211  -2.7149  -2.7072  -2.7071  -2.6985
    -2.6716  -2.6713  -2.6617  -2.6438  -2.6237  -2.6235  -2.6234  -2.6003
    -2.6003  -2.5925  -2.5920  -2.5915  -2.5911  -2.5670  -2.5238  -2.5000
    -2.4999  -2.4816  -2.4727  -2.4715  -2.4714  -2.4543  -2.4542  -2.4425
    -2.4202  -2.4178  -2.4174  -2.4086  -2.4081  -2.4058  -2.3727  -2.3695
    -2.3693  -2.3677  -2.3675  -2.3099  -2.2919  -2.2903  -2.2866  -2.2865
    -2.2659  -2.2656  -2.2618  -2.2379  -2.2379  -2.2246  -2.2123  -2.2121
    -2.1993  -2.1971  -2.1971  -2.1648  -2.1647  -2.1300  -2.1122  -2.1120
    -2.1087  -2.1046  -2.1042  -2.1041  -2.1014  -2.1009  -2.1004  -2.0999
    -2.0744  -2.0744  -1.9478  -1.9478  -1.9145  -1.9145  -1.9115  -1.8970
    -1.8970  -1.8906  -1.8896  -1.8892  -1.8890  -1.8728  -1.8681  -1.8507
    -1.8506  -1.8445  -1.8439  -1.8435  -1.8106  -1.8106  -1.7948  -1.7938
    -1.7656  -1.7579  -1.7579  -1.7359  -1.7301  -1.7188  -1.7187  -1.7074
    -1.6910  -1.6909  -1.6787  -1.6785  -1.6508  -1.6508  -1.6363  -1.6356
    -1.6032  -1.6031  -1.5964  -1.5400  -1.5392  -1.5209  -1.5208  -1.5181
    -1.4895  -1.4869  -1.4609  -1.4596  -1.4593  -1.4296  -1.4240  -1.4239
    -1.4012  -1.4010  -1.3779  -1.3713  -1.3712  -1.3420  -1.3290  -1.3290
    -1.2700  -1.2700  -1.2669  -1.2669  -1.2393  -1.2386  -1.2276  -1.2261
    -1.2261  -1.2113  -1.1732  -1.1728  -1.1599  -1.1233  -1.1232  -1.1232
    -1.1222  -1.1195  -1.1194  -1.0965  -1.0965  -1.0954  -1.0564  -1.0560
    -1.0448  -1.0445  -1.0386  -1.0382  -1.0201  -0.9995  -0.9995  -0.9771
    -0.9771  -0.8908  -0.8757  -0.8740  -0.8739  -0.8721  -0.8661  -0.8657
    -0.8442  -0.8371  -0.8163  -0.8160  -0.8091  -0.8091  -0.7938  -0.7758
    -0.7727  -0.7727  -0.7653  -0.6945  -0.6944  -0.6576  -0.6576  -0.6522
    -0.6495  -0.6494  -0.6438  -0.6437  -0.6341  -0.6338  -0.6187  -0.5883
    -0.5791  -0.5577  -0.5577  -0.5438  -0.5437  -0.5334  -0.5331  -0.5327
    -0.5309  -0.5309  -0.5126  -0.5119  -0.5117  -0.4773  -0.4763  -0.4760
    -0.4661  -0.4659  -0.4460  -0.4121  -0.4120  -0.4028  -0.4028  -0.3346
    -0.3346  -0.3031  -0.3024  -0.2447  -0.2444  -0.2436  -0.2280  -0.2216
     0.0182   0.0183   0.3619   0.3619   0.4625   0.4627   0.6582   0.6595
     0.6797   0.7987   0.7987   1.2425   1.2427   1.2478   1.5191   1.5530
     1.5531   1.8304   1.8304   1.8958   1.8960   1.9464   1.9465   2.1529
     2.1535   2.2538   2.2538   2.3276   2.3925   2.3926   2.5656   2.6542
     3.0867   3.0868   3.1054   3.1056   3.1538   3.1542   3.4477   3.4483
     3.7279   3.7279   3.8357   4.1445   4.1924   4.1926   4.4116   4.4116
     4.4803   4.4808   4.5738   4.6942   4.6947   4.8146   4.8148   5.1100
     5.1934   5.1936   5.3616   5.3616   5.4986   5.5680   5.5682   5.6024
     5.6026   5.6549   5.6558   5.7161   6.0422   6.0429   6.2672   6.3258
     6.3259   6.3960   6.3966   6.4238   6.4239   6.5825   6.6526   6.6529
     6.7551   6.8967   6.8968   6.9072   6.9073   7.1173

     the Fermi energy is     1.3863 ev

!    total energy              =   -6569.73357723 Ry
     Harris-Foulkes estimate   =   -6569.73357724 Ry
     estimated scf accuracy    <          3.3E-09 Ry

     The total energy is the sum of the following terms:

     one-electron contribution =  -48781.45779630 Ry
     hartree contribution      =   24887.10210886 Ry
     xc contribution           =   -3196.30531571 Ry
     ewald contribution        =   20520.92568270 Ry
     smearing contrib. (-TS)   =       0.00174321 Ry

     convergence has been achieved in  19 iterations

     Writing output data file 111strucdev331.save

     init_run     :   1097.40s CPU   1152.33s WALL (       1 calls)
     electrons    :  52031.07s CPU  54308.61s WALL (       1 calls)

     Called by init_run:
     wfcinit      :   1003.16s CPU   1050.99s WALL (       1 calls)
     potinit      :     12.26s CPU     13.38s WALL (       1 calls)

     Called by electrons:
     c_bands      :  43582.26s CPU  45528.22s WALL (      20 calls)
     sum_band     :   6728.01s CPU   7003.17s WALL (      20 calls)
     v_of_rho     :    225.58s CPU    241.12s WALL (      20 calls)
     newd         :   1567.82s CPU   1609.38s WALL (      20 calls)
     mix_rho      :      9.12s CPU      9.55s WALL (      20 calls)
     vdW_energy   :     33.20s CPU     37.00s WALL (      20 calls)
     vdW_ffts     :     89.09s CPU     95.00s WALL (      40 calls)
     vdW_v        :     39.27s CPU     40.50s WALL (      20 calls)

     Called by c_bands:
     init_us_2    :    117.16s CPU    120.18s WALL (     492 calls)
     cegterg      :  43186.35s CPU  45080.65s WALL (     240 calls)

     Called by *egterg:
     h_psi        :  23298.38s CPU  24439.37s WALL (    1180 calls)
     s_psi        :   4031.84s CPU   4070.52s WALL (    1180 calls)
     g_psi        :     22.05s CPU     22.32s WALL (     928 calls)
     cdiaghg      :   4114.13s CPU   4183.52s WALL (    1156 calls)

     Called by h_psi:
     add_vuspsi   :   4042.97s CPU   4082.32s WALL (    1180 calls)

     General routines
     calbec       :   5841.52s CPU   5995.33s WALL (    1420 calls)
     fft          :    150.95s CPU    173.24s WALL (    1320 calls)
     ffts         :      1.58s CPU      1.66s WALL (      40 calls)
     fftw         :  12852.67s CPU  13934.60s WALL (  594534 calls)
     interpolate  :      7.29s CPU      7.56s WALL (      40 calls)
     davcio       :      0.10s CPU    232.95s WALL (      12 calls)

     Parallel routines
     fft_scatter  :   6082.72s CPU   7062.73s WALL (  595894 calls)

     PWSCF        :    14h45m CPU       15h28m WALL


   This run was terminated on:   2:44:19  16Jun2015            

=------------------------------------------------------------------------------=
   JOB DONE.
=------------------------------------------------------------------------------=
