Setting SGE environment for SCC

     Program PWSCF v.5.1.2 starts on 22Jun2015 at 12:24:21 

     This program is part of the open-source Quantum ESPRESSO suite
     for quantum simulation of materials; please cite
         "P. Giannozzi et al., J. Phys.:Condens. Matter 21 395502 (2009);
          URL http://www.quantum-espresso.org", 
     in publications or presentations arising from this work. More details at
     http://www.quantum-espresso.org/quote

     Parallel version (MPI), running on    32 processors
     R & G space division:  proc/nbgrp/npool/nimage =      32
     Waiting for input...
     Reading input from standard input
Warning: card &CELL ignored
Warning: card / ignored

     Current dimensions of program PWSCF are:
     Max number of different atomic species (ntypx) = 10
     Max number of k-points (npk) =  40000
     Max angular momentum in pseudopotentials (lmaxx) =  3

     IMPORTANT: XC functional enforced from input :
     Exchange-correlation      = VDW-DF ( 1  4  4  0 1 0)
     Any further DFT definition will be discarded
     Please, verify this is what you really want


     Subspace diagonalization in iterative solution of the eigenvalue problem:
     a serial algorithm will be used


     Parallelization info
     --------------------
     sticks:   dense  smooth     PW     G-vecs:    dense   smooth      PW
     Min         445     223     58                96775    34191    4534
     Max         446     224     59                96790    34246    4540
     Sum       14269    7147   1867              3097177  1095093  145167


     Title: 
     GOLD                                                                       


     bravais-lattice index     =            4
     lattice parameter (alat)  =      22.7436  a.u.
     unit-cell volume          =   22924.1508 (a.u.)^3
     number of atoms/cell      =           64
     number of atomic types    =            1
     number of electrons       =       704.00
     number of Kohn-Sham states=          422
     kinetic-energy cutoff     =      50.0000  Ry
     charge density cutoff     =     400.0000  Ry
     convergence threshold     =      1.0E-08
     mixing beta               =       0.7000
     number of iterations used =            8  plain     mixing
     Exchange-correlation      = VDW-DF ( 1  4  4  0 1 0)
     nstep                     =           50


     celldm(1)=  22.743643  celldm(2)=   0.000000  celldm(3)=   2.250000
     celldm(4)=   0.000000  celldm(5)=   0.000000  celldm(6)=   0.000000

     crystal axes: (cart. coord. in units of alat)
               a(1) = (   1.000000   0.000000   0.000000 )  
               a(2) = (  -0.500000   0.866025   0.000000 )  
               a(3) = (   0.000000   0.000000   2.250000 )  

     reciprocal axes: (cart. coord. in units 2 pi/alat)
               b(1) = (  1.000000  0.577350 -0.000000 )  
               b(2) = (  0.000000  1.154701  0.000000 )  
               b(3) = (  0.000000 -0.000000  0.444444 )  


     PseudoPot. # 1 for Au read from file:
     /home/scc/andrejb/qe/pseudo/Au.pbe-nd-van.UPF
     MD5 check sum: 458681b50f36d87ef23c61b04bba420a
     Pseudo is Ultrasoft + core correction, Zval = 11.0
     Generated by new atomic code, or converted to UPF format
     Using radial grid of  985 points,  3 beta functions with: 
                l(1) =   1
                l(2) =   2
                l(3) =   2
     Q(r) pseudized with  8 coefficients,  rinner =    1.100   1.100   1.100
                                                       1.100   1.100

     vdW kernel table read from file vdW_kernel_table
     MD5 check sum: 48e77a2e26edf626eeb0eaa751ad5cac

     atomic species   valence    mass     pseudopotential
        Au            11.00   196.96657     Au( 1.00)

     No symmetry found
          (note:  1 additional sym.ops. were found but ignored
           their fractional translations are incommensurate with FFT grid)


   Cartesian axes

     site n.     atom                  positions (alat units)
         1           Au  tau(   1) = (   0.3540481   0.6132292   0.0000000  )
         2           Au  tau(   2) = (   0.4790062   0.3967954   0.0000000  )
         3           Au  tau(   3) = (   0.6039644   0.1803616   0.0000000  )
         4           Au  tau(   4) = (   0.7289225  -0.0360723   0.0000000  )
         5           Au  tau(   5) = (   0.1041318   0.6132292   0.0000000  )
         6           Au  tau(   6) = (   0.2290899   0.3967954   0.0000000  )
         7           Au  tau(   7) = (   0.3540481   0.1803616   0.0000000  )
         8           Au  tau(   8) = (   0.4790062  -0.0360723   0.0000000  )
         9           Au  tau(   9) = (  -0.1457845   0.6132292   0.0000000  )
        10           Au  tau(  10) = (  -0.0208264   0.3967954   0.0000000  )
        11           Au  tau(  11) = (   0.1041318   0.1803616   0.0000000  )
        12           Au  tau(  12) = (   0.2290899  -0.0360723   0.0000000  )
        13           Au  tau(  13) = (  -0.3957008   0.6132292   0.0000000  )
        14           Au  tau(  14) = (  -0.2707426   0.3967954   0.0000000  )
        15           Au  tau(  15) = (  -0.1457845   0.1803616   0.0000000  )
        16           Au  tau(  16) = (  -0.0208264  -0.0360723   0.0000000  )
        17           Au  tau(  17) = (   0.4790062   0.6853738   0.2040557  )
        18           Au  tau(  18) = (   0.6039644   0.4689400   0.2040557  )
        19           Au  tau(  19) = (   0.7289225   0.2525062   0.2040557  )
        20           Au  tau(  20) = (   0.8538806   0.0360723   0.2040557  )
        21           Au  tau(  21) = (   0.2290899   0.6853738   0.2040557  )
        22           Au  tau(  22) = (   0.3540481   0.4689400   0.2040557  )
        23           Au  tau(  23) = (   0.4790062   0.2525062   0.2040557  )
        24           Au  tau(  24) = (   0.6039644   0.0360723   0.2040557  )
        25           Au  tau(  25) = (  -0.0208264   0.6853738   0.2040557  )
        26           Au  tau(  26) = (   0.1041318   0.4689400   0.2040557  )
        27           Au  tau(  27) = (   0.2290899   0.2525062   0.2040557  )
        28           Au  tau(  28) = (   0.3540481   0.0360723   0.2040557  )
        29           Au  tau(  29) = (  -0.2707426   0.6853738   0.2040557  )
        30           Au  tau(  30) = (  -0.1457845   0.4689400   0.2040557  )
        31           Au  tau(  31) = (  -0.0208264   0.2525062   0.2040557  )
        32           Au  tau(  32) = (   0.1041318   0.0360723   0.2040557  )
        33           Au  tau(  33) = (   0.3540481   0.7575185   0.4081116  )
        34           Au  tau(  34) = (   0.4790062   0.5410847   0.4081116  )
        35           Au  tau(  35) = (   0.6039644   0.3246507   0.4081116  )
        36           Au  tau(  36) = (   0.7289225   0.1082169   0.4081116  )
        37           Au  tau(  37) = (   0.1041318   0.7575185   0.4081116  )
        38           Au  tau(  38) = (   0.2290899   0.5410847   0.4081116  )
        39           Au  tau(  39) = (   0.3540481   0.3246507   0.4081116  )
        40           Au  tau(  40) = (   0.4790062   0.1082169   0.4081116  )
        41           Au  tau(  41) = (  -0.1457845   0.7575185   0.4081116  )
        42           Au  tau(  42) = (  -0.0208264   0.5410847   0.4081116  )
        43           Au  tau(  43) = (   0.1041318   0.3246507   0.4081116  )
        44           Au  tau(  44) = (   0.2290899   0.1082169   0.4081116  )
        45           Au  tau(  45) = (  -0.3957008   0.7575185   0.4081116  )
        46           Au  tau(  46) = (  -0.2707426   0.5410847   0.4081116  )
        47           Au  tau(  47) = (  -0.1457845   0.3246507   0.4081116  )
        48           Au  tau(  48) = (  -0.0208264   0.1082169   0.4081116  )
        49           Au  tau(  49) = (   0.3540481   0.6132292   0.6121674  )
        50           Au  tau(  50) = (   0.4790062   0.3967954   0.6121674  )
        51           Au  tau(  51) = (   0.6039644   0.1803616   0.6121674  )
        52           Au  tau(  52) = (   0.7289225  -0.0360723   0.6121674  )
        53           Au  tau(  53) = (   0.1041318   0.6132292   0.6121674  )
        54           Au  tau(  54) = (   0.2290899   0.3967954   0.6121674  )
        55           Au  tau(  55) = (   0.3540481   0.1803616   0.6121674  )
        56           Au  tau(  56) = (   0.4790062  -0.0360723   0.6121674  )
        57           Au  tau(  57) = (  -0.1457845   0.6132292   0.6121674  )
        58           Au  tau(  58) = (  -0.0208264   0.3967954   0.6121674  )
        59           Au  tau(  59) = (   0.1041318   0.1803616   0.6121674  )
        60           Au  tau(  60) = (   0.2290899  -0.0360723   0.6121674  )
        61           Au  tau(  61) = (  -0.3957008   0.6132292   0.6121674  )
        62           Au  tau(  62) = (  -0.2707426   0.3967954   0.6121674  )
        63           Au  tau(  63) = (  -0.1457845   0.1803616   0.6121674  )
        64           Au  tau(  64) = (  -0.0208264  -0.0360723   0.6121674  )

     number of k points=    12  Marzari-Vanderbilt smearing, width (Ry)=  0.0200
                       cart. coord. in units 2pi/alat
        k(    1) = (   0.2500000   0.4330127   0.1111111), wk =   0.1666667
        k(    2) = (   0.2500000  -0.1443376   0.1111111), wk =   0.1666667
        k(    3) = (  -0.2500000  -0.4330127   0.1111111), wk =   0.1666667
        k(    4) = (  -0.2500000   0.4330127  -0.1111111), wk =   0.1666667
        k(    5) = (   0.2500000  -0.4330127  -0.1111111), wk =   0.1666667
        k(    6) = (   0.5000000   0.0000000   0.1111111), wk =   0.1666667
        k(    7) = (  -0.5000000   0.0000000   0.1111111), wk =   0.1666667
        k(    8) = (  -0.2500000   0.1443376   0.1111111), wk =   0.1666667
        k(    9) = (  -0.2500000  -0.1443376  -0.1111111), wk =   0.1666667
        k(   10) = (   0.2500000   0.1443376  -0.1111111), wk =   0.1666667
        k(   11) = (   0.0000000  -0.2886751   0.1111111), wk =   0.1666667
        k(   12) = (   0.0000000   0.2886751   0.1111111), wk =   0.1666667

     Dense  grid:  3097177 G-vectors     FFT dimensions: ( 150, 150, 360)

     Smooth grid:  1095093 G-vectors     FFT dimensions: ( 108, 108, 240)

     Largest allocated arrays     est. size (Mb)     dimensions
        Kohn-Sham Wavefunctions        27.68 Mb     (    4299,  422)
        NL pseudopotentials            54.58 Mb     (    4299,  832)
        Each V/rho on FFT grid          4.12 Mb     (  270000)
        Each G-vector array             0.74 Mb     (   96788)
        G-vector shells                 0.16 Mb     (   21404)
     Largest temporary arrays     est. size (Mb)     dimensions
        Auxiliary wavefunctions       110.73 Mb     (    4299, 1688)
        Each subspace H/S matrix       43.48 Mb     (    1688, 1688)
        Each <psi_i|beta_j> matrix      5.36 Mb     (     832,  422)
        Arrays for rho mixing          32.96 Mb     (  270000,    8)

     Initial potential from superposition of free atoms
     Check: negative starting charge=   -1.727440

     starting charge  703.25684, renormalised to  704.00000

     negative rho (up, down):  1.729E+00 0.000E+00


     ************************************************************************
     *
     * You are using vdW-DF for exchange-correlation in this calculation.
     * Please cite the following three references that made this development
     * possible:
     *
     *   M. Dion, H. Rydberg, E. Schroder, D. C. Langreth, and
     *   B. I. Lundqvist, Phys. Rev. Lett. 92, 246401 (2004).
     *
     *   T. Thonhauser, V. R. Cooper, S. Li, A. Puzder, P. Hyldgaard, and
     *   D. C. Langreth, Phys. Rev. B 76, 125112 (2007).
     *
     *   G. Roman-Perez and J. M. Soler, Phys. Rev. Lett. 103, 096102 (2009).
     *
     *
     * If you are using vdW-DF2, please also cite:
     *
     *   K. Lee, E. D. Murray, L. Kong, B. I. Lundqvist, and
     *   D. C. Langreth, Phys. Rev. B 82, 081101(R) (2010).
     *
     *
     * If you are calculating the stress with vdW-DF, please also cite:
     *
     *   R. Sabatini, E. Kucukbenli, B. Kolb, T. Thonhauser, and
     *   S. de Gironcoli, J. Phys.: Condens. Matter 24, 424209 (2012).
     *
     ************************************************************************

     Carrying out vdW-DF run using the following parameters:

     Nqs =      20    Nr_points =    1024   r_max =   100.000
     q_mesh =
               0.00001000     0.04494208     0.09755937     0.15916263
               0.23128650     0.31572767     0.41458969     0.53033537
               0.66584808     0.82450364     1.01025438     1.22772762
               1.48234092     1.78043706     2.12944203     2.53805004
               3.01644009     3.57652955     4.23227104     5.00000000

     Gradients computed in reciprocal space

     ************************************************************************


     Starting wfc are  576 randomized atomic wfcs

     total cpu time spent up to now is      163.8 secs

     Self-consistent Calculation

     iteration #  1     ecut=    50.00 Ry     beta=0.70
     Davidson diagonalization with overlap
     ethr =  1.00E-02,  avg # of iterations =  3.0

     Threshold (ethr) on eigenvalues was too large:
     Diagonalizing with lowered threshold

     Davidson diagonalization with overlap
     ethr =  2.85E-04,  avg # of iterations =  4.5

     negative rho (up, down):  1.722E+00 0.000E+00

     total cpu time spent up to now is      803.8 secs

     total energy              =   -6568.26180312 Ry
     Harris-Foulkes estimate   =   -6570.21022376 Ry
     estimated scf accuracy    <       2.40441416 Ry

     iteration #  2     ecut=    50.00 Ry     beta=0.70
     Davidson diagonalization with overlap
     ethr =  3.42E-04,  avg # of iterations = 11.6

     negative rho (up, down):  1.722E+00 0.000E+00

     total cpu time spent up to now is     1766.3 secs

     total energy              =   -6562.71084693 Ry
     Harris-Foulkes estimate   =   -6575.27592832 Ry
     estimated scf accuracy    <      71.95232197 Ry

     iteration #  3     ecut=    50.00 Ry     beta=0.70
     Davidson diagonalization with overlap
     ethr =  3.42E-04,  avg # of iterations =  6.0

     negative rho (up, down):  1.737E+00 0.000E+00

     total cpu time spent up to now is     2405.0 secs

     total energy              =   -6569.46413612 Ry
     Harris-Foulkes estimate   =   -6570.05550172 Ry
     estimated scf accuracy    <       1.99302178 Ry

     iteration #  4     ecut=    50.00 Ry     beta=0.70
     Davidson diagonalization with overlap
     ethr =  2.83E-04,  avg # of iterations =  2.0

     negative rho (up, down):  1.746E+00 0.000E+00

     total cpu time spent up to now is     2694.0 secs

     total energy              =   -6569.70979483 Ry
     Harris-Foulkes estimate   =   -6569.75518526 Ry
     estimated scf accuracy    <       0.10373144 Ry

     iteration #  5     ecut=    50.00 Ry     beta=0.70
     Davidson diagonalization with overlap
     ethr =  1.47E-05,  avg # of iterations =  6.0

     negative rho (up, down):  1.752E+00 0.000E+00

     total cpu time spent up to now is     3228.5 secs

     total energy              =   -6569.73147779 Ry
     Harris-Foulkes estimate   =   -6569.73515055 Ry
     estimated scf accuracy    <       0.01373823 Ry

     iteration #  6     ecut=    50.00 Ry     beta=0.70
     Davidson diagonalization with overlap
     ethr =  1.95E-06,  avg # of iterations =  8.3

     negative rho (up, down):  1.752E+00 0.000E+00

     total cpu time spent up to now is     3684.7 secs

     total energy              =   -6569.73194169 Ry
     Harris-Foulkes estimate   =   -6569.73506579 Ry
     estimated scf accuracy    <       0.01269092 Ry

     iteration #  7     ecut=    50.00 Ry     beta=0.70
     Davidson diagonalization with overlap
     ethr =  1.80E-06,  avg # of iterations =  2.7

     negative rho (up, down):  1.752E+00 0.000E+00

     total cpu time spent up to now is     3979.8 secs

     total energy              =   -6569.73322584 Ry
     Harris-Foulkes estimate   =   -6569.73383584 Ry
     estimated scf accuracy    <       0.00255650 Ry

     iteration #  8     ecut=    50.00 Ry     beta=0.70
     Davidson diagonalization with overlap
     ethr =  3.63E-07,  avg # of iterations =  3.0

     negative rho (up, down):  1.752E+00 0.000E+00

     total cpu time spent up to now is     4272.9 secs

     total energy              =   -6569.73298482 Ry
     Harris-Foulkes estimate   =   -6569.73417575 Ry
     estimated scf accuracy    <       0.01273996 Ry

     iteration #  9     ecut=    50.00 Ry     beta=0.70
     Davidson diagonalization with overlap
     ethr =  3.63E-07,  avg # of iterations =  1.8

     negative rho (up, down):  1.752E+00 0.000E+00

     total cpu time spent up to now is     4550.1 secs

     total energy              =   -6569.73355188 Ry
     Harris-Foulkes estimate   =   -6569.73359194 Ry
     estimated scf accuracy    <       0.00017798 Ry

     iteration # 10     ecut=    50.00 Ry     beta=0.70
     Davidson diagonalization with overlap
     ethr =  2.53E-08,  avg # of iterations =  2.5

     negative rho (up, down):  1.752E+00 0.000E+00

     total cpu time spent up to now is     4836.1 secs

     total energy              =   -6569.73357035 Ry
     Harris-Foulkes estimate   =   -6569.73358035 Ry
     estimated scf accuracy    <       0.00002325 Ry

     iteration # 11     ecut=    50.00 Ry     beta=0.70
     Davidson diagonalization with overlap
     ethr =  3.30E-09,  avg # of iterations =  2.8

     negative rho (up, down):  1.752E+00 0.000E+00

     total cpu time spent up to now is     5197.8 secs

     total energy              =   -6569.73357485 Ry
     Harris-Foulkes estimate   =   -6569.73357934 Ry
     estimated scf accuracy    <       0.00001407 Ry

     iteration # 12     ecut=    50.00 Ry     beta=0.70
     Davidson diagonalization with overlap
     ethr =  2.00E-09,  avg # of iterations =  2.0

     negative rho (up, down):  1.752E+00 0.000E+00

     total cpu time spent up to now is     5539.0 secs

     total energy              =   -6569.73357584 Ry
     Harris-Foulkes estimate   =   -6569.73357855 Ry
     estimated scf accuracy    <       0.00000933 Ry

     iteration # 13     ecut=    50.00 Ry     beta=0.70
     Davidson diagonalization with overlap
     ethr =  1.33E-09,  avg # of iterations =  2.0

     negative rho (up, down):  1.752E+00 0.000E+00

     total cpu time spent up to now is     5823.9 secs

     total energy              =   -6569.73357699 Ry
     Harris-Foulkes estimate   =   -6569.73357736 Ry
     estimated scf accuracy    <       0.00000119 Ry

     iteration # 14     ecut=    50.00 Ry     beta=0.70
     Davidson diagonalization with overlap
     ethr =  1.70E-10,  avg # of iterations =  3.0

     negative rho (up, down):  1.752E+00 0.000E+00

     total cpu time spent up to now is     6182.8 secs

     total energy              =   -6569.73357704 Ry
     Harris-Foulkes estimate   =   -6569.73357758 Ry
     estimated scf accuracy    <       0.00000200 Ry

     iteration # 15     ecut=    50.00 Ry     beta=0.70
     Davidson diagonalization with overlap
     ethr =  1.70E-10,  avg # of iterations =  2.0

     negative rho (up, down):  1.752E+00 0.000E+00

     total cpu time spent up to now is     6485.7 secs

     total energy              =   -6569.73357721 Ry
     Harris-Foulkes estimate   =   -6569.73357731 Ry
     estimated scf accuracy    <       0.00000011 Ry

     iteration # 16     ecut=    50.00 Ry     beta=0.70
     Davidson diagonalization with overlap
     ethr =  1.49E-11,  avg # of iterations =  2.0

     negative rho (up, down):  1.752E+00 0.000E+00

     total cpu time spent up to now is     6814.0 secs

     total energy              =   -6569.73357721 Ry
     Harris-Foulkes estimate   =   -6569.73357723 Ry
     estimated scf accuracy    <       0.00000002 Ry

     iteration # 17     ecut=    50.00 Ry     beta=0.70
     Davidson diagonalization with overlap
     ethr =  2.69E-12,  avg # of iterations =  2.0

     negative rho (up, down):  1.752E+00 0.000E+00

     total cpu time spent up to now is     7145.5 secs

     End of self-consistent calculation

          k = 0.2500 0.4330 0.1111 (136853 PWs)   bands (ev):

    -6.3755  -5.9759  -5.9758  -5.3303  -4.9630  -4.9630  -4.9575  -4.9575
    -4.5618  -4.5618  -4.4641  -4.4641  -4.4478  -4.4260  -4.4253  -4.2955
    -4.2953  -4.2727  -4.2314  -4.2314  -4.1828  -4.1828  -4.1690  -4.1690
    -4.1320  -4.1297  -4.1297  -4.0694  -4.0694  -4.0271  -4.0270  -4.0111
    -4.0111  -3.9885  -3.9885  -3.9667  -3.9567  -3.9565  -3.9503  -3.8818
    -3.8818  -3.8302  -3.8302  -3.7982  -3.7982  -3.7382  -3.7381  -3.7161
    -3.7161  -3.6761  -3.6671  -3.6670  -3.6368  -3.6332  -3.6332  -3.6317
    -3.6317  -3.6185  -3.5558  -3.5558  -3.5529  -3.5136  -3.4923  -3.4317
    -3.4316  -3.4182  -3.4182  -3.3936  -3.3936  -3.3494  -3.3491  -3.3010
    -3.3010  -3.2793  -3.2793  -3.2394  -3.2324  -3.2324  -3.1794  -3.1581
    -3.1581  -3.1363  -3.1362  -3.1335  -3.1335  -3.1306  -3.1306  -3.1218
    -3.0775  -3.0105  -3.0105  -3.0021  -3.0021  -2.9840  -2.9795  -2.9795
    -2.9734  -2.9004  -2.9004  -2.8883  -2.8673  -2.8446  -2.8445  -2.8371
    -2.8074  -2.8074  -2.7735  -2.7404  -2.7404  -2.7292  -2.7158  -2.6966
    -2.6966  -2.6539  -2.6539  -2.6126  -2.5884  -2.5884  -2.5706  -2.5705
    -2.5522  -2.5522  -2.5399  -2.5277  -2.5277  -2.4830  -2.4735  -2.4735
    -2.4698  -2.4698  -2.4538  -2.4429  -2.4426  -2.4425  -2.4382  -2.4356
    -2.4292  -2.4277  -2.4276  -2.3858  -2.3824  -2.3823  -2.3815  -2.3815
    -2.3768  -2.3768  -2.3601  -2.3530  -2.3399  -2.3399  -2.3083  -2.3083
    -2.3069  -2.3069  -2.3045  -2.3045  -2.2889  -2.2888  -2.2883  -2.2883
    -2.2762  -2.2358  -2.2358  -2.1916  -2.1916  -2.1755  -2.1755  -2.1567
    -2.1567  -2.1203  -2.1203  -2.1058  -2.1053  -2.0678  -2.0558  -2.0557
    -2.0557  -2.0414  -2.0414  -2.0409  -2.0408  -2.0100  -2.0004  -1.9946
    -1.9356  -1.9335  -1.9335  -1.9291  -1.9291  -1.8968  -1.8783  -1.8783
    -1.8552  -1.8552  -1.7954  -1.7954  -1.7581  -1.7363  -1.7363  -1.6837
    -1.6837  -1.6740  -1.6740  -1.6544  -1.6487  -1.6487  -1.6404  -1.6404
    -1.5772  -1.5772  -1.5699  -1.5699  -1.5606  -1.5542  -1.5542  -1.5203
    -1.5203  -1.4954  -1.4932  -1.4931  -1.4809  -1.4795  -1.4755  -1.4755
    -1.4510  -1.4510  -1.4170  -1.4170  -1.4019  -1.4019  -1.3661  -1.3518
    -1.3264  -1.3264  -1.3068  -1.2925  -1.2925  -1.2549  -1.2071  -1.2071
    -1.2063  -1.2063  -1.1978  -1.1978  -1.1870  -1.1690  -1.1690  -1.1274
    -1.1274  -1.1059  -1.1059  -1.1015  -1.1015  -1.0937  -1.0678  -1.0678
    -1.0674  -1.0674  -1.0649  -1.0271  -1.0271  -1.0245  -1.0245  -0.9956
    -0.9919  -0.9919  -0.9660  -0.9525  -0.9525  -0.9171  -0.9008  -0.9008
    -0.8646  -0.8633  -0.8494  -0.8494  -0.8419  -0.8418  -0.8349  -0.8349
    -0.8285  -0.8285  -0.8045  -0.8044  -0.8009  -0.7921  -0.7921  -0.7625
    -0.7625  -0.7531  -0.7531  -0.7282  -0.7221  -0.7221  -0.7199  -0.6578
    -0.6547  -0.6479  -0.6479  -0.6427  -0.6427  -0.6365  -0.6204  -0.6204
    -0.6119  -0.6119  -0.6089  -0.6089  -0.5697  -0.5674  -0.5674  -0.5588
    -0.5588  -0.5544  -0.5521  -0.5436  -0.5365  -0.5353  -0.5353  -0.4952
    -0.4951  -0.4842  -0.4781  -0.4781  -0.4024  -0.4024  -0.3964  -0.3964
    -0.3887  -0.3887  -0.3516  -0.3421  -0.3421  -0.3099  -0.3098  -0.3069
    -0.1949  -0.1949  -0.0927   0.3337   0.3337   0.3369   0.3369   0.4059
     0.4059   0.7745   0.7745   0.8167   0.8167   0.9381   1.0285   1.1419
     1.1419   1.3520   1.3520   1.9948   1.9948   2.1574   2.1574   2.2782
     2.2782   2.3831   2.3831   2.5382   2.7733   2.7818   2.8963   3.1220
     3.1221   3.1938   3.1938   3.2955   3.3218   3.5219   3.5219   3.5657
     3.7797   3.7797   3.8410   3.8410   4.0913   4.1056   4.1056   4.3475
     4.3948   4.3948   4.4359   4.7672   4.7672   4.8089   4.9447   5.1116
     5.1116   5.1783   5.1784   5.6314   5.8926   5.9031   5.9032   5.9131
     5.9131   5.9646   5.9646   6.0673   6.0710   6.1104   6.1383   6.1384
     6.1611   6.1611   6.1863   6.1863   6.2214   6.5783   6.5799   6.7510
     6.7617   6.7620   6.8406   6.8408   6.8484   6.9756

          k = 0.2500-0.1443 0.1111 (136898 PWs)   bands (ev):

    -6.5855  -5.7930  -5.5340  -5.4423  -5.4422  -4.9028  -4.9027  -4.8043
    -4.7703  -4.6236  -4.5978  -4.5238  -4.5218  -4.5218  -4.4570  -4.4570
    -4.3295  -4.2870  -4.2870  -4.2420  -4.2283  -4.2282  -4.0979  -4.0979
    -4.0676  -4.0674  -4.0674  -4.0447  -4.0158  -4.0158  -3.9273  -3.9113
    -3.9112  -3.8989  -3.8806  -3.8806  -3.8725  -3.8649  -3.8648  -3.8225
    -3.8225  -3.8122  -3.8121  -3.8077  -3.8077  -3.7792  -3.7690  -3.7690
    -3.7375  -3.7375  -3.6916  -3.6767  -3.6767  -3.6575  -3.6575  -3.5893
    -3.5893  -3.5698  -3.5569  -3.5569  -3.4819  -3.4819  -3.4760  -3.4760
    -3.4603  -3.4603  -3.4514  -3.4514  -3.2946  -3.2946  -3.2855  -3.2855
    -3.2800  -3.2382  -3.2382  -3.2293  -3.2293  -3.1734  -3.1734  -3.1626
    -3.1626  -3.1201  -3.0986  -3.0985  -3.0757  -3.0698  -3.0698  -3.0228
    -3.0228  -3.0106  -3.0105  -3.0000  -2.9999  -2.9610  -2.9610  -2.9345
    -2.9344  -2.9274  -2.9274  -2.9143  -2.8538  -2.8509  -2.8509  -2.8119
    -2.8119  -2.7502  -2.7502  -2.7209  -2.7150  -2.7073  -2.7073  -2.6983
    -2.6715  -2.6715  -2.6616  -2.6438  -2.6235  -2.6235  -2.6231  -2.6003
    -2.6003  -2.5918  -2.5918  -2.5914  -2.5914  -2.5670  -2.5238  -2.4999
    -2.4998  -2.4817  -2.4726  -2.4715  -2.4712  -2.4541  -2.4541  -2.4423
    -2.4200  -2.4177  -2.4177  -2.4084  -2.4084  -2.4059  -2.3724  -2.3692
    -2.3692  -2.3678  -2.3677  -2.3097  -2.2919  -2.2900  -2.2865  -2.2865
    -2.2658  -2.2658  -2.2617  -2.2380  -2.2380  -2.2246  -2.2122  -2.2122
    -2.1992  -2.1970  -2.1970  -2.1648  -2.1647  -2.1300  -2.1121  -2.1121
    -2.1090  -2.1045  -2.1042  -2.1040  -2.1012  -2.1012  -2.1000  -2.0998
    -2.0742  -2.0742  -1.9478  -1.9478  -1.9145  -1.9145  -1.9115  -1.8971
    -1.8971  -1.8896  -1.8895  -1.8891  -1.8891  -1.8733  -1.8681  -1.8507
    -1.8507  -1.8444  -1.8444  -1.8434  -1.8103  -1.8103  -1.7941  -1.7941
    -1.7657  -1.7579  -1.7579  -1.7359  -1.7304  -1.7188  -1.7188  -1.7074
    -1.6908  -1.6907  -1.6785  -1.6785  -1.6510  -1.6510  -1.6359  -1.6359
    -1.6029  -1.6029  -1.5963  -1.5396  -1.5395  -1.5209  -1.5209  -1.5176
    -1.4892  -1.4870  -1.4610  -1.4596  -1.4596  -1.4295  -1.4240  -1.4240
    -1.4011  -1.4011  -1.3779  -1.3711  -1.3711  -1.3418  -1.3290  -1.3290
    -1.2697  -1.2697  -1.2669  -1.2669  -1.2389  -1.2389  -1.2281  -1.2263
    -1.2263  -1.2115  -1.1730  -1.1729  -1.1598  -1.1235  -1.1232  -1.1232
    -1.1218  -1.1193  -1.1193  -1.0962  -1.0962  -1.0954  -1.0562  -1.0562
    -1.0447  -1.0447  -1.0384  -1.0384  -1.0200  -0.9993  -0.9993  -0.9772
    -0.9772  -0.8909  -0.8756  -0.8740  -0.8739  -0.8723  -0.8657  -0.8657
    -0.8442  -0.8373  -0.8161  -0.8161  -0.8091  -0.8091  -0.7936  -0.7756
    -0.7728  -0.7728  -0.7652  -0.6944  -0.6944  -0.6576  -0.6576  -0.6522
    -0.6493  -0.6493  -0.6437  -0.6437  -0.6339  -0.6339  -0.6186  -0.5884
    -0.5789  -0.5577  -0.5577  -0.5437  -0.5437  -0.5333  -0.5333  -0.5326
    -0.5308  -0.5308  -0.5126  -0.5117  -0.5117  -0.4773  -0.4763  -0.4763
    -0.4660  -0.4660  -0.4458  -0.4120  -0.4120  -0.4028  -0.4028  -0.3345
    -0.3345  -0.3027  -0.3027  -0.2445  -0.2444  -0.2437  -0.2277  -0.2216
     0.0181   0.0181   0.3619   0.3619   0.4626   0.4626   0.6585   0.6595
     0.6798   0.7988   0.7988   1.2427   1.2427   1.2476   1.5191   1.5530
     1.5531   1.8305   1.8305   1.8960   1.8960   1.9465   1.9465   2.1533
     2.1533   2.2538   2.2538   2.3276   2.3926   2.3926   2.5658   2.6541
     3.0867   3.0867   3.1054   3.1055   3.1540   3.1540   3.4480   3.4480
     3.7279   3.7279   3.8357   4.1445   4.1928   4.1928   4.4116   4.4117
     4.4805   4.4805   4.5738   4.6946   4.6946   4.8144   4.8144   5.1100
     5.1935   5.1935   5.3616   5.3616   5.4986   5.5684   5.5684   5.6026
     5.6026   5.6552   5.6552   5.7162   6.0422   6.0429   6.2677   6.3259
     6.3259   6.3963   6.3963   6.4237   6.4237   6.5825   6.6528   6.6528
     6.7552   6.8967   6.8967   6.9073   6.9073   7.1603

          k =-0.2500-0.4330 0.1111 (136853 PWs)   bands (ev):

    -6.3755  -5.9759  -5.9758  -5.3303  -4.9630  -4.9630  -4.9575  -4.9575
    -4.5618  -4.5618  -4.4641  -4.4641  -4.4478  -4.4260  -4.4253  -4.2955
    -4.2953  -4.2727  -4.2314  -4.2314  -4.1828  -4.1828  -4.1690  -4.1690
    -4.1320  -4.1297  -4.1297  -4.0694  -4.0694  -4.0271  -4.0270  -4.0111
    -4.0111  -3.9885  -3.9885  -3.9667  -3.9567  -3.9565  -3.9503  -3.8818
    -3.8818  -3.8302  -3.8302  -3.7982  -3.7982  -3.7382  -3.7381  -3.7161
    -3.7161  -3.6761  -3.6671  -3.6670  -3.6368  -3.6332  -3.6332  -3.6317
    -3.6317  -3.6185  -3.5558  -3.5558  -3.5529  -3.5136  -3.4923  -3.4317
    -3.4316  -3.4182  -3.4182  -3.3936  -3.3936  -3.3494  -3.3491  -3.3010
    -3.3010  -3.2793  -3.2793  -3.2394  -3.2324  -3.2324  -3.1794  -3.1581
    -3.1581  -3.1363  -3.1362  -3.1335  -3.1335  -3.1306  -3.1306  -3.1218
    -3.0775  -3.0105  -3.0105  -3.0021  -3.0021  -2.9840  -2.9795  -2.9795
    -2.9734  -2.9004  -2.9004  -2.8883  -2.8673  -2.8446  -2.8445  -2.8371
    -2.8074  -2.8074  -2.7735  -2.7404  -2.7404  -2.7292  -2.7158  -2.6966
    -2.6966  -2.6539  -2.6539  -2.6126  -2.5884  -2.5884  -2.5706  -2.5705
    -2.5522  -2.5522  -2.5399  -2.5277  -2.5277  -2.4830  -2.4735  -2.4735
    -2.4698  -2.4698  -2.4538  -2.4429  -2.4426  -2.4425  -2.4382  -2.4356
    -2.4292  -2.4277  -2.4276  -2.3858  -2.3824  -2.3823  -2.3815  -2.3815
    -2.3768  -2.3768  -2.3601  -2.3530  -2.3399  -2.3399  -2.3083  -2.3083
    -2.3069  -2.3069  -2.3045  -2.3045  -2.2889  -2.2888  -2.2883  -2.2883
    -2.2762  -2.2358  -2.2358  -2.1916  -2.1916  -2.1755  -2.1755  -2.1567
    -2.1567  -2.1203  -2.1203  -2.1058  -2.1053  -2.0678  -2.0558  -2.0557
    -2.0557  -2.0414  -2.0414  -2.0409  -2.0408  -2.0100  -2.0004  -1.9946
    -1.9356  -1.9335  -1.9335  -1.9291  -1.9291  -1.8968  -1.8783  -1.8783
    -1.8552  -1.8552  -1.7954  -1.7954  -1.7581  -1.7363  -1.7363  -1.6837
    -1.6837  -1.6740  -1.6740  -1.6544  -1.6487  -1.6487  -1.6404  -1.6404
    -1.5772  -1.5772  -1.5699  -1.5699  -1.5606  -1.5542  -1.5542  -1.5203
    -1.5203  -1.4954  -1.4932  -1.4931  -1.4809  -1.4795  -1.4755  -1.4755
    -1.4510  -1.4510  -1.4170  -1.4170  -1.4019  -1.4019  -1.3661  -1.3518
    -1.3264  -1.3264  -1.3068  -1.2925  -1.2925  -1.2549  -1.2071  -1.2071
    -1.2063  -1.2063  -1.1978  -1.1978  -1.1870  -1.1690  -1.1690  -1.1274
    -1.1274  -1.1059  -1.1059  -1.1015  -1.1015  -1.0937  -1.0678  -1.0678
    -1.0674  -1.0674  -1.0649  -1.0271  -1.0271  -1.0245  -1.0245  -0.9956
    -0.9919  -0.9919  -0.9660  -0.9525  -0.9525  -0.9171  -0.9008  -0.9008
    -0.8646  -0.8633  -0.8494  -0.8494  -0.8419  -0.8418  -0.8349  -0.8349
    -0.8285  -0.8285  -0.8045  -0.8044  -0.8009  -0.7921  -0.7921  -0.7625
    -0.7625  -0.7531  -0.7531  -0.7282  -0.7221  -0.7221  -0.7199  -0.6578
    -0.6547  -0.6479  -0.6479  -0.6427  -0.6427  -0.6365  -0.6204  -0.6204
    -0.6119  -0.6119  -0.6089  -0.6089  -0.5697  -0.5674  -0.5674  -0.5588
    -0.5588  -0.5544  -0.5521  -0.5436  -0.5365  -0.5353  -0.5353  -0.4952
    -0.4951  -0.4842  -0.4781  -0.4781  -0.4024  -0.4024  -0.3964  -0.3964
    -0.3887  -0.3887  -0.3516  -0.3421  -0.3421  -0.3099  -0.3098  -0.3069
    -0.1949  -0.1949  -0.0927   0.3337   0.3337   0.3369   0.3369   0.4059
     0.4059   0.7745   0.7745   0.8167   0.8167   0.9381   1.0285   1.1419
     1.1419   1.3520   1.3520   1.9948   1.9948   2.1574   2.1574   2.2782
     2.2782   2.3831   2.3831   2.5382   2.7733   2.7818   2.8963   3.1220
     3.1221   3.1938   3.1938   3.2955   3.3218   3.5219   3.5219   3.5657
     3.7797   3.7797   3.8410   3.8410   4.0913   4.1056   4.1056   4.3475
     4.3948   4.3948   4.4359   4.7672   4.7672   4.8089   4.9447   5.1116
     5.1116   5.1783   5.1784   5.6314   5.8926   5.9031   5.9032   5.9131
     5.9131   5.9646   5.9646   6.0673   6.0710   6.1104   6.1383   6.1384
     6.1611   6.1611   6.1863   6.1863   6.2214   6.5783   6.5799   6.7510
     6.7617   6.7620   6.8406   6.8408   6.8484   6.9756

          k =-0.2500 0.4330-0.1111 (136853 PWs)   bands (ev):

    -6.3755  -5.9782  -5.9735  -5.3302  -4.9643  -4.9618  -4.9598  -4.9552
    -4.5628  -4.5607  -4.4643  -4.4640  -4.4475  -4.4260  -4.4253  -4.2964
    -4.2947  -4.2729  -4.2317  -4.2312  -4.1836  -4.1817  -4.1695  -4.1689
    -4.1319  -4.1314  -4.1281  -4.0712  -4.0675  -4.0283  -4.0254  -4.0114
    -4.0108  -3.9886  -3.9884  -3.9667  -3.9568  -3.9564  -3.9505  -3.8822
    -3.8815  -3.8318  -3.8286  -3.7984  -3.7980  -3.7387  -3.7376  -3.7161
    -3.7160  -3.6762  -3.6673  -3.6670  -3.6367  -3.6335  -3.6329  -3.6323
    -3.6313  -3.6185  -3.5560  -3.5556  -3.5528  -3.5135  -3.4919  -3.4325
    -3.4312  -3.4185  -3.4177  -3.3941  -3.3928  -3.3496  -3.3490  -3.3014
    -3.3009  -3.2795  -3.2788  -3.2394  -3.2326  -3.2324  -3.1792  -3.1587
    -3.1576  -3.1368  -3.1366  -3.1332  -3.1327  -3.1312  -3.1301  -3.1220
    -3.0774  -3.0116  -3.0096  -3.0023  -3.0018  -2.9839  -2.9799  -2.9792
    -2.9735  -2.9016  -2.8992  -2.8886  -2.8671  -2.8454  -2.8435  -2.8370
    -2.8081  -2.8072  -2.7736  -2.7406  -2.7397  -2.7293  -2.7159  -2.6968
    -2.6965  -2.6541  -2.6537  -2.6125  -2.5887  -2.5883  -2.5708  -2.5706
    -2.5525  -2.5516  -2.5400  -2.5282  -2.5274  -2.4831  -2.4738  -2.4726
    -2.4709  -2.4688  -2.4537  -2.4434  -2.4427  -2.4423  -2.4380  -2.4356
    -2.4293  -2.4283  -2.4267  -2.3855  -2.3827  -2.3822  -2.3816  -2.3813
    -2.3770  -2.3764  -2.3602  -2.3533  -2.3400  -2.3397  -2.3090  -2.3080
    -2.3070  -2.3065  -2.3045  -2.3044  -2.2896  -2.2888  -2.2882  -2.2879
    -2.2762  -2.2365  -2.2355  -2.1931  -2.1902  -2.1765  -2.1746  -2.1567
    -2.1562  -2.1204  -2.1201  -2.1059  -2.1052  -2.0676  -2.0561  -2.0559
    -2.0552  -2.0418  -2.0412  -2.0409  -2.0407  -2.0100  -2.0002  -1.9941
    -1.9356  -1.9340  -1.9335  -1.9294  -1.9291  -1.8968  -1.8794  -1.8771
    -1.8555  -1.8550  -1.7962  -1.7944  -1.7585  -1.7364  -1.7359  -1.6842
    -1.6831  -1.6743  -1.6736  -1.6546  -1.6490  -1.6484  -1.6407  -1.6404
    -1.5775  -1.5767  -1.5703  -1.5697  -1.5609  -1.5543  -1.5539  -1.5205
    -1.5202  -1.4955  -1.4935  -1.4928  -1.4806  -1.4796  -1.4760  -1.4751
    -1.4517  -1.4501  -1.4170  -1.4167  -1.4018  -1.4017  -1.3660  -1.3518
    -1.3272  -1.3257  -1.3070  -1.2927  -1.2923  -1.2550  -1.2071  -1.2069
    -1.2067  -1.2064  -1.1983  -1.1977  -1.1871  -1.1694  -1.1683  -1.1276
    -1.1270  -1.1060  -1.1059  -1.1020  -1.1011  -1.0936  -1.0681  -1.0678
    -1.0674  -1.0668  -1.0647  -1.0274  -1.0270  -1.0246  -1.0242  -0.9953
    -0.9922  -0.9917  -0.9664  -0.9527  -0.9519  -0.9172  -0.9009  -0.9006
    -0.8646  -0.8631  -0.8499  -0.8489  -0.8418  -0.8416  -0.8351  -0.8348
    -0.8287  -0.8284  -0.8050  -0.8039  -0.8010  -0.7925  -0.7920  -0.7624
    -0.7622  -0.7533  -0.7530  -0.7283  -0.7223  -0.7221  -0.7197  -0.6577
    -0.6547  -0.6482  -0.6477  -0.6429  -0.6425  -0.6364  -0.6206  -0.6203
    -0.6120  -0.6118  -0.6090  -0.6086  -0.5698  -0.5676  -0.5671  -0.5590
    -0.5585  -0.5545  -0.5521  -0.5434  -0.5365  -0.5357  -0.5351  -0.4955
    -0.4949  -0.4844  -0.4782  -0.4780  -0.4025  -0.4023  -0.3965  -0.3963
    -0.3888  -0.3886  -0.3515  -0.3422  -0.3420  -0.3104  -0.3094  -0.3070
    -0.1950  -0.1948  -0.0926   0.3337   0.3339   0.3363   0.3373   0.4053
     0.4064   0.7743   0.7749   0.8159   0.8174   0.9380   1.0286   1.1414
     1.1426   1.3514   1.3526   1.9941   1.9953   2.1567   2.1583   2.2777
     2.2788   2.3824   2.3839   2.5380   2.7736   2.7818   2.8963   3.1214
     3.1227   3.1928   3.1949   3.2953   3.3218   3.5207   3.5230   3.5660
     3.7789   3.7806   3.8403   3.8417   4.0909   4.1050   4.1061   4.3481
     4.3938   4.3957   4.4357   4.7663   4.7680   4.8083   4.9449   5.1110
     5.1123   5.1774   5.1793   5.6313   5.8926   5.9030   5.9033   5.9124
     5.9140   5.9641   5.9650   6.0673   6.0708   6.1103   6.1380   6.1387
     6.1606   6.1616   6.1862   6.1870   6.2214   6.5782   6.5799   6.7510
     6.7618   6.7620   6.8402   6.8415   6.8480   6.9758

          k = 0.2500-0.4330-0.1111 (136853 PWs)   bands (ev):

    -6.3755  -5.9782  -5.9735  -5.3302  -4.9643  -4.9618  -4.9598  -4.9552
    -4.5628  -4.5607  -4.4643  -4.4640  -4.4475  -4.4260  -4.4253  -4.2964
    -4.2947  -4.2729  -4.2317  -4.2312  -4.1836  -4.1817  -4.1695  -4.1689
    -4.1319  -4.1314  -4.1281  -4.0712  -4.0675  -4.0283  -4.0254  -4.0114
    -4.0108  -3.9886  -3.9884  -3.9667  -3.9568  -3.9564  -3.9505  -3.8822
    -3.8815  -3.8318  -3.8286  -3.7984  -3.7980  -3.7387  -3.7376  -3.7161
    -3.7160  -3.6762  -3.6673  -3.6670  -3.6367  -3.6335  -3.6329  -3.6323
    -3.6313  -3.6185  -3.5560  -3.5556  -3.5528  -3.5135  -3.4919  -3.4325
    -3.4312  -3.4185  -3.4177  -3.3941  -3.3928  -3.3496  -3.3490  -3.3014
    -3.3009  -3.2795  -3.2788  -3.2394  -3.2326  -3.2324  -3.1792  -3.1587
    -3.1576  -3.1368  -3.1366  -3.1332  -3.1327  -3.1312  -3.1301  -3.1220
    -3.0774  -3.0116  -3.0096  -3.0023  -3.0018  -2.9839  -2.9799  -2.9792
    -2.9735  -2.9016  -2.8992  -2.8886  -2.8671  -2.8454  -2.8435  -2.8370
    -2.8081  -2.8072  -2.7736  -2.7406  -2.7397  -2.7293  -2.7159  -2.6968
    -2.6965  -2.6541  -2.6537  -2.6125  -2.5887  -2.5883  -2.5708  -2.5706
    -2.5525  -2.5516  -2.5400  -2.5282  -2.5274  -2.4831  -2.4738  -2.4726
    -2.4709  -2.4688  -2.4537  -2.4434  -2.4427  -2.4423  -2.4380  -2.4356
    -2.4293  -2.4283  -2.4267  -2.3855  -2.3827  -2.3822  -2.3816  -2.3813
    -2.3770  -2.3764  -2.3602  -2.3533  -2.3400  -2.3397  -2.3090  -2.3080
    -2.3070  -2.3065  -2.3045  -2.3044  -2.2896  -2.2888  -2.2882  -2.2879
    -2.2762  -2.2365  -2.2355  -2.1931  -2.1902  -2.1765  -2.1746  -2.1567
    -2.1562  -2.1204  -2.1201  -2.1059  -2.1052  -2.0676  -2.0561  -2.0559
    -2.0552  -2.0418  -2.0412  -2.0409  -2.0407  -2.0100  -2.0002  -1.9941
    -1.9356  -1.9340  -1.9335  -1.9294  -1.9291  -1.8968  -1.8794  -1.8771
    -1.8555  -1.8550  -1.7962  -1.7944  -1.7585  -1.7364  -1.7359  -1.6842
    -1.6831  -1.6743  -1.6736  -1.6546  -1.6490  -1.6484  -1.6407  -1.6404
    -1.5775  -1.5767  -1.5703  -1.5697  -1.5609  -1.5543  -1.5539  -1.5205
    -1.5202  -1.4955  -1.4935  -1.4928  -1.4806  -1.4796  -1.4760  -1.4751
    -1.4517  -1.4501  -1.4170  -1.4167  -1.4018  -1.4017  -1.3660  -1.3518
    -1.3272  -1.3257  -1.3070  -1.2927  -1.2923  -1.2550  -1.2071  -1.2069
    -1.2067  -1.2064  -1.1983  -1.1977  -1.1871  -1.1694  -1.1683  -1.1276
    -1.1270  -1.1060  -1.1059  -1.1020  -1.1011  -1.0936  -1.0681  -1.0678
    -1.0674  -1.0668  -1.0647  -1.0274  -1.0270  -1.0246  -1.0242  -0.9953
    -0.9922  -0.9917  -0.9664  -0.9527  -0.9519  -0.9172  -0.9009  -0.9006
    -0.8646  -0.8631  -0.8499  -0.8489  -0.8418  -0.8416  -0.8351  -0.8348
    -0.8287  -0.8284  -0.8050  -0.8039  -0.8010  -0.7925  -0.7920  -0.7624
    -0.7622  -0.7533  -0.7530  -0.7283  -0.7223  -0.7221  -0.7197  -0.6577
    -0.6547  -0.6482  -0.6477  -0.6429  -0.6425  -0.6364  -0.6206  -0.6203
    -0.6120  -0.6118  -0.6090  -0.6086  -0.5698  -0.5676  -0.5671  -0.5590
    -0.5585  -0.5545  -0.5521  -0.5434  -0.5365  -0.5357  -0.5351  -0.4955
    -0.4949  -0.4844  -0.4782  -0.4780  -0.4025  -0.4023  -0.3965  -0.3963
    -0.3888  -0.3886  -0.3515  -0.3422  -0.3420  -0.3104  -0.3094  -0.3070
    -0.1950  -0.1948  -0.0926   0.3337   0.3339   0.3363   0.3373   0.4053
     0.4064   0.7743   0.7749   0.8159   0.8174   0.9380   1.0286   1.1414
     1.1426   1.3514   1.3526   1.9941   1.9953   2.1567   2.1583   2.2777
     2.2788   2.3824   2.3839   2.5380   2.7736   2.7818   2.8963   3.1214
     3.1227   3.1928   3.1949   3.2953   3.3218   3.5207   3.5230   3.5660
     3.7789   3.7806   3.8403   3.8417   4.0909   4.1050   4.1061   4.3481
     4.3938   4.3957   4.4357   4.7663   4.7680   4.8083   4.9449   5.1110
     5.1123   5.1774   5.1793   5.6313   5.8926   5.9030   5.9033   5.9124
     5.9140   5.9641   5.9650   6.0673   6.0708   6.1103   6.1380   6.1387
     6.1606   6.1616   6.1862   6.1870   6.2214   6.5782   6.5799   6.7510
     6.7617   6.7620   6.8402   6.8415   6.8480   6.9758

          k = 0.5000 0.0000 0.1111 (136853 PWs)   bands (ev):

    -6.3755  -5.9782  -5.9735  -5.3302  -4.9643  -4.9618  -4.9598  -4.9552
    -4.5628  -4.5607  -4.4643  -4.4640  -4.4475  -4.4260  -4.4253  -4.2964
    -4.2947  -4.2729  -4.2317  -4.2312  -4.1836  -4.1817  -4.1695  -4.1689
    -4.1319  -4.1314  -4.1281  -4.0712  -4.0675  -4.0283  -4.0254  -4.0114
    -4.0108  -3.9886  -3.9884  -3.9667  -3.9568  -3.9564  -3.9505  -3.8822
    -3.8815  -3.8318  -3.8286  -3.7984  -3.7980  -3.7387  -3.7376  -3.7161
    -3.7160  -3.6762  -3.6673  -3.6670  -3.6367  -3.6335  -3.6329  -3.6323
    -3.6313  -3.6185  -3.5560  -3.5556  -3.5528  -3.5135  -3.4919  -3.4325
    -3.4312  -3.4185  -3.4177  -3.3941  -3.3928  -3.3496  -3.3490  -3.3014
    -3.3009  -3.2795  -3.2788  -3.2394  -3.2326  -3.2324  -3.1792  -3.1587
    -3.1576  -3.1368  -3.1366  -3.1332  -3.1327  -3.1312  -3.1301  -3.1220
    -3.0774  -3.0116  -3.0096  -3.0023  -3.0018  -2.9839  -2.9799  -2.9792
    -2.9735  -2.9016  -2.8992  -2.8886  -2.8671  -2.8454  -2.8435  -2.8370
    -2.8081  -2.8072  -2.7736  -2.7406  -2.7397  -2.7293  -2.7159  -2.6968
    -2.6965  -2.6541  -2.6537  -2.6125  -2.5887  -2.5883  -2.5708  -2.5706
    -2.5525  -2.5516  -2.5400  -2.5282  -2.5274  -2.4831  -2.4738  -2.4726
    -2.4709  -2.4688  -2.4537  -2.4434  -2.4427  -2.4423  -2.4380  -2.4356
    -2.4293  -2.4283  -2.4267  -2.3855  -2.3827  -2.3822  -2.3816  -2.3813
    -2.3770  -2.3764  -2.3602  -2.3533  -2.3400  -2.3397  -2.3090  -2.3080
    -2.3070  -2.3065  -2.3045  -2.3044  -2.2896  -2.2888  -2.2882  -2.2879
    -2.2762  -2.2365  -2.2355  -2.1931  -2.1902  -2.1765  -2.1746  -2.1567
    -2.1562  -2.1204  -2.1201  -2.1059  -2.1052  -2.0676  -2.0561  -2.0559
    -2.0552  -2.0418  -2.0412  -2.0409  -2.0407  -2.0100  -2.0002  -1.9941
    -1.9356  -1.9340  -1.9335  -1.9294  -1.9291  -1.8968  -1.8794  -1.8771
    -1.8555  -1.8550  -1.7962  -1.7944  -1.7585  -1.7364  -1.7359  -1.6842
    -1.6831  -1.6743  -1.6736  -1.6546  -1.6490  -1.6484  -1.6407  -1.6404
    -1.5775  -1.5767  -1.5703  -1.5697  -1.5609  -1.5543  -1.5539  -1.5205
    -1.5202  -1.4955  -1.4935  -1.4928  -1.4806  -1.4796  -1.4760  -1.4751
    -1.4517  -1.4501  -1.4170  -1.4167  -1.4018  -1.4017  -1.3660  -1.3518
    -1.3272  -1.3257  -1.3070  -1.2927  -1.2923  -1.2550  -1.2071  -1.2069
    -1.2067  -1.2064  -1.1983  -1.1977  -1.1871  -1.1694  -1.1683  -1.1276
    -1.1270  -1.1060  -1.1059  -1.1020  -1.1011  -1.0936  -1.0681  -1.0678
    -1.0674  -1.0668  -1.0647  -1.0274  -1.0270  -1.0246  -1.0242  -0.9953
    -0.9922  -0.9917  -0.9664  -0.9527  -0.9519  -0.9172  -0.9009  -0.9006
    -0.8646  -0.8631  -0.8499  -0.8489  -0.8418  -0.8416  -0.8351  -0.8348
    -0.8287  -0.8284  -0.8050  -0.8039  -0.8010  -0.7925  -0.7920  -0.7624
    -0.7622  -0.7533  -0.7530  -0.7283  -0.7223  -0.7221  -0.7197  -0.6577
    -0.6547  -0.6482  -0.6477  -0.6429  -0.6425  -0.6364  -0.6206  -0.6203
    -0.6120  -0.6118  -0.6090  -0.6086  -0.5698  -0.5676  -0.5671  -0.5590
    -0.5585  -0.5545  -0.5521  -0.5434  -0.5365  -0.5357  -0.5351  -0.4955
    -0.4949  -0.4844  -0.4782  -0.4780  -0.4025  -0.4023  -0.3965  -0.3963
    -0.3888  -0.3886  -0.3515  -0.3422  -0.3420  -0.3104  -0.3094  -0.3070
    -0.1950  -0.1948  -0.0926   0.3337   0.3339   0.3363   0.3373   0.4053
     0.4064   0.7743   0.7749   0.8159   0.8174   0.9380   1.0286   1.1414
     1.1426   1.3514   1.3526   1.9941   1.9953   2.1567   2.1583   2.2777
     2.2788   2.3824   2.3839   2.5380   2.7736   2.7818   2.8963   3.1214
     3.1227   3.1928   3.1949   3.2953   3.3218   3.5207   3.5230   3.5660
     3.7789   3.7806   3.8403   3.8417   4.0909   4.1050   4.1061   4.3481
     4.3938   4.3957   4.4357   4.7663   4.7680   4.8083   4.9449   5.1110
     5.1123   5.1774   5.1793   5.6313   5.8926   5.9030   5.9033   5.9124
     5.9140   5.9641   5.9650   6.0673   6.0708   6.1103   6.1380   6.1387
     6.1606   6.1616   6.1862   6.1870   6.2214   6.5782   6.5799   6.7510
     6.7618   6.7620   6.8402   6.8415   6.8480   6.9758

          k =-0.5000 0.0000 0.1111 (136853 PWs)   bands (ev):

    -6.3755  -5.9782  -5.9735  -5.3302  -4.9643  -4.9618  -4.9598  -4.9552
    -4.5628  -4.5607  -4.4643  -4.4640  -4.4475  -4.4260  -4.4253  -4.2964
    -4.2947  -4.2729  -4.2317  -4.2312  -4.1836  -4.1817  -4.1695  -4.1689
    -4.1319  -4.1314  -4.1281  -4.0712  -4.0675  -4.0283  -4.0254  -4.0114
    -4.0108  -3.9886  -3.9884  -3.9667  -3.9568  -3.9564  -3.9505  -3.8822
    -3.8815  -3.8318  -3.8286  -3.7984  -3.7980  -3.7387  -3.7376  -3.7161
    -3.7160  -3.6762  -3.6673  -3.6670  -3.6367  -3.6335  -3.6329  -3.6323
    -3.6313  -3.6185  -3.5560  -3.5556  -3.5528  -3.5135  -3.4919  -3.4325
    -3.4312  -3.4185  -3.4177  -3.3941  -3.3928  -3.3496  -3.3490  -3.3014
    -3.3009  -3.2795  -3.2788  -3.2394  -3.2326  -3.2324  -3.1792  -3.1587
    -3.1576  -3.1368  -3.1366  -3.1332  -3.1327  -3.1312  -3.1301  -3.1220
    -3.0774  -3.0116  -3.0096  -3.0023  -3.0018  -2.9839  -2.9799  -2.9792
    -2.9735  -2.9016  -2.8992  -2.8886  -2.8671  -2.8454  -2.8435  -2.8370
    -2.8081  -2.8072  -2.7736  -2.7406  -2.7397  -2.7293  -2.7159  -2.6968
    -2.6965  -2.6541  -2.6537  -2.6125  -2.5887  -2.5883  -2.5708  -2.5706
    -2.5525  -2.5516  -2.5400  -2.5282  -2.5274  -2.4831  -2.4738  -2.4726
    -2.4709  -2.4688  -2.4537  -2.4434  -2.4427  -2.4423  -2.4380  -2.4356
    -2.4293  -2.4283  -2.4267  -2.3855  -2.3827  -2.3822  -2.3816  -2.3813
    -2.3770  -2.3764  -2.3602  -2.3533  -2.3400  -2.3397  -2.3090  -2.3080
    -2.3070  -2.3065  -2.3045  -2.3044  -2.2896  -2.2888  -2.2882  -2.2879
    -2.2762  -2.2365  -2.2355  -2.1931  -2.1902  -2.1765  -2.1746  -2.1567
    -2.1562  -2.1204  -2.1201  -2.1059  -2.1052  -2.0676  -2.0561  -2.0559
    -2.0552  -2.0418  -2.0412  -2.0409  -2.0407  -2.0100  -2.0002  -1.9941
    -1.9356  -1.9340  -1.9335  -1.9294  -1.9291  -1.8968  -1.8794  -1.8771
    -1.8555  -1.8550  -1.7962  -1.7944  -1.7585  -1.7364  -1.7359  -1.6842
    -1.6831  -1.6743  -1.6736  -1.6546  -1.6490  -1.6484  -1.6407  -1.6404
    -1.5775  -1.5767  -1.5703  -1.5697  -1.5609  -1.5543  -1.5539  -1.5205
    -1.5202  -1.4955  -1.4935  -1.4928  -1.4806  -1.4796  -1.4760  -1.4751
    -1.4517  -1.4501  -1.4170  -1.4167  -1.4018  -1.4017  -1.3660  -1.3518
    -1.3272  -1.3257  -1.3070  -1.2927  -1.2923  -1.2550  -1.2071  -1.2069
    -1.2067  -1.2064  -1.1983  -1.1977  -1.1871  -1.1694  -1.1683  -1.1276
    -1.1270  -1.1060  -1.1059  -1.1020  -1.1011  -1.0936  -1.0681  -1.0678
    -1.0674  -1.0668  -1.0647  -1.0274  -1.0270  -1.0246  -1.0242  -0.9953
    -0.9922  -0.9917  -0.9664  -0.9527  -0.9519  -0.9172  -0.9009  -0.9006
    -0.8646  -0.8631  -0.8499  -0.8489  -0.8418  -0.8416  -0.8351  -0.8348
    -0.8287  -0.8284  -0.8050  -0.8039  -0.8010  -0.7925  -0.7920  -0.7624
    -0.7622  -0.7533  -0.7530  -0.7283  -0.7223  -0.7221  -0.7197  -0.6577
    -0.6547  -0.6482  -0.6477  -0.6429  -0.6425  -0.6364  -0.6206  -0.6203
    -0.6120  -0.6118  -0.6090  -0.6086  -0.5698  -0.5676  -0.5671  -0.5590
    -0.5585  -0.5545  -0.5521  -0.5434  -0.5365  -0.5357  -0.5351  -0.4955
    -0.4949  -0.4844  -0.4782  -0.4780  -0.4025  -0.4023  -0.3965  -0.3963
    -0.3888  -0.3886  -0.3515  -0.3422  -0.3420  -0.3104  -0.3094  -0.3070
    -0.1950  -0.1948  -0.0926   0.3337   0.3339   0.3363   0.3373   0.4053
     0.4064   0.7743   0.7749   0.8159   0.8174   0.9380   1.0286   1.1414
     1.1426   1.3514   1.3526   1.9941   1.9953   2.1567   2.1583   2.2777
     2.2788   2.3824   2.3839   2.5380   2.7736   2.7818   2.8963   3.1214
     3.1227   3.1928   3.1949   3.2953   3.3218   3.5207   3.5230   3.5660
     3.7789   3.7806   3.8403   3.8417   4.0909   4.1050   4.1061   4.3481
     4.3938   4.3957   4.4357   4.7663   4.7680   4.8083   4.9449   5.1110
     5.1123   5.1774   5.1793   5.6313   5.8926   5.9030   5.9033   5.9124
     5.9140   5.9641   5.9650   6.0673   6.0708   6.1103   6.1380   6.1387
     6.1606   6.1616   6.1862   6.1870   6.2214   6.5782   6.5799   6.7510
     6.7617   6.7620   6.8402   6.8415   6.8480   6.9758

          k =-0.2500 0.1443 0.1111 (136898 PWs)   bands (ev):

    -6.5855  -5.7930  -5.5340  -5.4423  -5.4422  -4.9028  -4.9027  -4.8043
    -4.7703  -4.6236  -4.5978  -4.5238  -4.5218  -4.5218  -4.4570  -4.4570
    -4.3295  -4.2870  -4.2870  -4.2420  -4.2283  -4.2282  -4.0979  -4.0979
    -4.0676  -4.0674  -4.0674  -4.0447  -4.0158  -4.0158  -3.9273  -3.9113
    -3.9112  -3.8989  -3.8806  -3.8806  -3.8725  -3.8649  -3.8648  -3.8225
    -3.8225  -3.8122  -3.8121  -3.8077  -3.8077  -3.7792  -3.7690  -3.7690
    -3.7375  -3.7375  -3.6916  -3.6767  -3.6767  -3.6575  -3.6575  -3.5893
    -3.5893  -3.5698  -3.5569  -3.5569  -3.4819  -3.4819  -3.4760  -3.4760
    -3.4603  -3.4603  -3.4514  -3.4514  -3.2946  -3.2946  -3.2855  -3.2855
    -3.2800  -3.2382  -3.2382  -3.2293  -3.2293  -3.1734  -3.1734  -3.1626
    -3.1626  -3.1201  -3.0986  -3.0985  -3.0757  -3.0698  -3.0698  -3.0228
    -3.0228  -3.0106  -3.0105  -3.0000  -2.9999  -2.9610  -2.9609  -2.9345
    -2.9344  -2.9274  -2.9274  -2.9144  -2.8538  -2.8509  -2.8509  -2.8119
    -2.8119  -2.7502  -2.7502  -2.7209  -2.7150  -2.7073  -2.7073  -2.6983
    -2.6715  -2.6715  -2.6617  -2.6438  -2.6235  -2.6235  -2.6232  -2.6003
    -2.6003  -2.5918  -2.5918  -2.5914  -2.5914  -2.5670  -2.5238  -2.4999
    -2.4998  -2.4817  -2.4726  -2.4715  -2.4712  -2.4541  -2.4541  -2.4423
    -2.4200  -2.4177  -2.4177  -2.4084  -2.4084  -2.4059  -2.3724  -2.3692
    -2.3692  -2.3678  -2.3677  -2.3097  -2.2919  -2.2901  -2.2865  -2.2865
    -2.2658  -2.2658  -2.2617  -2.2380  -2.2380  -2.2246  -2.2122  -2.2122
    -2.1992  -2.1970  -2.1970  -2.1647  -2.1647  -2.1300  -2.1122  -2.1121
    -2.1090  -2.1045  -2.1042  -2.1040  -2.1012  -2.1012  -2.1000  -2.0998
    -2.0742  -2.0742  -1.9478  -1.9478  -1.9145  -1.9145  -1.9115  -1.8971
    -1.8971  -1.8896  -1.8895  -1.8891  -1.8891  -1.8733  -1.8681  -1.8507
    -1.8507  -1.8444  -1.8444  -1.8434  -1.8103  -1.8103  -1.7941  -1.7941
    -1.7657  -1.7579  -1.7579  -1.7359  -1.7304  -1.7188  -1.7188  -1.7074
    -1.6908  -1.6907  -1.6785  -1.6785  -1.6510  -1.6510  -1.6359  -1.6359
    -1.6029  -1.6029  -1.5962  -1.5396  -1.5395  -1.5209  -1.5209  -1.5176
    -1.4892  -1.4871  -1.4610  -1.4596  -1.4596  -1.4295  -1.4240  -1.4240
    -1.4011  -1.4011  -1.3780  -1.3711  -1.3711  -1.3418  -1.3290  -1.3290
    -1.2698  -1.2697  -1.2669  -1.2669  -1.2389  -1.2389  -1.2281  -1.2263
    -1.2263  -1.2115  -1.1730  -1.1730  -1.1598  -1.1235  -1.1232  -1.1232
    -1.1218  -1.1193  -1.1193  -1.0962  -1.0962  -1.0954  -1.0562  -1.0562
    -1.0447  -1.0446  -1.0384  -1.0384  -1.0200  -0.9993  -0.9993  -0.9772
    -0.9772  -0.8909  -0.8756  -0.8740  -0.8739  -0.8723  -0.8657  -0.8657
    -0.8442  -0.8373  -0.8161  -0.8161  -0.8091  -0.8091  -0.7936  -0.7756
    -0.7728  -0.7728  -0.7652  -0.6944  -0.6944  -0.6576  -0.6576  -0.6521
    -0.6493  -0.6493  -0.6437  -0.6437  -0.6339  -0.6339  -0.6186  -0.5884
    -0.5789  -0.5577  -0.5577  -0.5437  -0.5437  -0.5333  -0.5333  -0.5327
    -0.5308  -0.5308  -0.5126  -0.5117  -0.5117  -0.4773  -0.4763  -0.4763
    -0.4660  -0.4660  -0.4458  -0.4120  -0.4120  -0.4028  -0.4028  -0.3345
    -0.3345  -0.3027  -0.3027  -0.2445  -0.2444  -0.2437  -0.2277  -0.2215
     0.0181   0.0181   0.3619   0.3619   0.4626   0.4626   0.6585   0.6595
     0.6798   0.7988   0.7988   1.2427   1.2427   1.2476   1.5191   1.5531
     1.5531   1.8305   1.8305   1.8960   1.8960   1.9465   1.9465   2.1533
     2.1533   2.2538   2.2538   2.3276   2.3926   2.3926   2.5658   2.6541
     3.0867   3.0867   3.1054   3.1055   3.1540   3.1540   3.4480   3.4480
     3.7279   3.7279   3.8357   4.1445   4.1928   4.1928   4.4116   4.4116
     4.4805   4.4805   4.5738   4.6946   4.6946   4.8144   4.8144   5.1100
     5.1935   5.1935   5.3616   5.3616   5.4987   5.5684   5.5684   5.6026
     5.6026   5.6552   5.6552   5.7161   6.0419   6.0428   6.2677   6.3262
     6.3262   6.3963   6.3963   6.4237   6.4237   6.5831   6.6528   6.6528
     6.7596   6.8967   6.8967   6.9068   6.9068   7.1593

          k =-0.2500-0.1443-0.1111 (136898 PWs)   bands (ev):

    -6.5855  -5.7930  -5.5340  -5.4422  -5.4422  -4.9027  -4.9027  -4.8043
    -4.7705  -4.6236  -4.5978  -4.5240  -4.5218  -4.5218  -4.4571  -4.4568
    -4.3295  -4.2872  -4.2868  -4.2418  -4.2284  -4.2283  -4.0979  -4.0978
    -4.0676  -4.0675  -4.0674  -4.0447  -4.0161  -4.0155  -3.9272  -3.9115
    -3.9111  -3.8988  -3.8809  -3.8806  -3.8724  -3.8650  -3.8649  -3.8226
    -3.8225  -3.8121  -3.8120  -3.8080  -3.8076  -3.7790  -3.7689  -3.7689
    -3.7377  -3.7374  -3.6918  -3.6767  -3.6767  -3.6575  -3.6574  -3.5894
    -3.5892  -3.5696  -3.5569  -3.5567  -3.4818  -3.4817  -3.4762  -3.4760
    -3.4604  -3.4602  -3.4516  -3.4515  -3.2947  -3.2946  -3.2857  -3.2854
    -3.2799  -3.2382  -3.2382  -3.2294  -3.2290  -3.1735  -3.1734  -3.1627
    -3.1626  -3.1200  -3.0986  -3.0983  -3.0758  -3.0700  -3.0699  -3.0229
    -3.0228  -3.0107  -3.0106  -3.0000  -2.9999  -2.9607  -2.9607  -2.9344
    -2.9343  -2.9274  -2.9273  -2.9143  -2.8540  -2.8510  -2.8509  -2.8120
    -2.8118  -2.7504  -2.7498  -2.7210  -2.7149  -2.7071  -2.7071  -2.6984
    -2.6716  -2.6712  -2.6617  -2.6437  -2.6237  -2.6235  -2.6234  -2.6003
    -2.6002  -2.5925  -2.5919  -2.5915  -2.5911  -2.5670  -2.5237  -2.5000
    -2.4998  -2.4815  -2.4727  -2.4714  -2.4714  -2.4543  -2.4541  -2.4425
    -2.4201  -2.4178  -2.4174  -2.4086  -2.4081  -2.4057  -2.3727  -2.3694
    -2.3692  -2.3677  -2.3674  -2.3098  -2.2919  -2.2903  -2.2866  -2.2865
    -2.2659  -2.2656  -2.2617  -2.2379  -2.2378  -2.2246  -2.2122  -2.2121
    -2.1992  -2.1971  -2.1971  -2.1648  -2.1647  -2.1300  -2.1122  -2.1119
    -2.1086  -2.1046  -2.1042  -2.1041  -2.1013  -2.1009  -2.1004  -2.0999
    -2.0744  -2.0743  -1.9478  -1.9478  -1.9144  -1.9144  -1.9114  -1.8970
    -1.8970  -1.8906  -1.8895  -1.8891  -1.8890  -1.8727  -1.8681  -1.8506
    -1.8506  -1.8445  -1.8438  -1.8435  -1.8106  -1.8105  -1.7947  -1.7937
    -1.7655  -1.7579  -1.7578  -1.7358  -1.7301  -1.7188  -1.7186  -1.7074
    -1.6909  -1.6909  -1.6787  -1.6785  -1.6508  -1.6507  -1.6363  -1.6355
    -1.6032  -1.6030  -1.5963  -1.5400  -1.5392  -1.5208  -1.5207  -1.5181
    -1.4894  -1.4868  -1.4609  -1.4596  -1.4592  -1.4296  -1.4239  -1.4239
    -1.4011  -1.4009  -1.3779  -1.3713  -1.3711  -1.3419  -1.3290  -1.3290
    -1.2700  -1.2699  -1.2669  -1.2669  -1.2393  -1.2386  -1.2276  -1.2261
    -1.2261  -1.2112  -1.1732  -1.1728  -1.1599  -1.1232  -1.1232  -1.1232
    -1.1222  -1.1194  -1.1194  -1.0964  -1.0964  -1.0953  -1.0564  -1.0560
    -1.0448  -1.0445  -1.0386  -1.0382  -1.0201  -0.9995  -0.9995  -0.9771
    -0.9770  -0.8907  -0.8756  -0.8740  -0.8739  -0.8720  -0.8661  -0.8657
    -0.8442  -0.8371  -0.8162  -0.8160  -0.8091  -0.8091  -0.7937  -0.7758
    -0.7727  -0.7727  -0.7653  -0.6945  -0.6943  -0.6576  -0.6576  -0.6522
    -0.6494  -0.6493  -0.6437  -0.6436  -0.6341  -0.6337  -0.6187  -0.5883
    -0.5791  -0.5577  -0.5577  -0.5438  -0.5437  -0.5333  -0.5331  -0.5327
    -0.5309  -0.5308  -0.5126  -0.5119  -0.5117  -0.4773  -0.4763  -0.4760
    -0.4660  -0.4659  -0.4459  -0.4120  -0.4120  -0.4028  -0.4027  -0.3346
    -0.3345  -0.3030  -0.3024  -0.2447  -0.2443  -0.2436  -0.2279  -0.2215
     0.0182   0.0183   0.3619   0.3619   0.4626   0.4628   0.6582   0.6595
     0.6797   0.7988   0.7988   1.2426   1.2428   1.2478   1.5191   1.5530
     1.5532   1.8304   1.8304   1.8958   1.8960   1.9464   1.9465   2.1529
     2.1535   2.2538   2.2538   2.3276   2.3925   2.3926   2.5656   2.6542
     3.0867   3.0868   3.1054   3.1056   3.1538   3.1542   3.4477   3.4483
     3.7279   3.7279   3.8357   4.1445   4.1925   4.1926   4.4116   4.4117
     4.4803   4.4809   4.5739   4.6942   4.6947   4.8146   4.8149   5.1100
     5.1934   5.1936   5.3616   5.3616   5.4987   5.5680   5.5682   5.6025
     5.6027   5.6550   5.6558   5.7161   6.0419   6.0428   6.2672   6.3262
     6.3262   6.3960   6.3967   6.4239   6.4239   6.5831   6.6527   6.6529
     6.7596   6.8967   6.8968   6.9067   6.9068   7.1595

          k = 0.2500 0.1443-0.1111 (136898 PWs)   bands (ev):

    -6.5855  -5.7930  -5.5340  -5.4422  -5.4422  -4.9027  -4.9027  -4.8043
    -4.7705  -4.6236  -4.5978  -4.5240  -4.5218  -4.5218  -4.4571  -4.4568
    -4.3295  -4.2872  -4.2868  -4.2418  -4.2284  -4.2283  -4.0979  -4.0978
    -4.0676  -4.0675  -4.0674  -4.0447  -4.0161  -4.0155  -3.9272  -3.9115
    -3.9111  -3.8988  -3.8809  -3.8806  -3.8724  -3.8650  -3.8649  -3.8226
    -3.8225  -3.8121  -3.8120  -3.8080  -3.8076  -3.7790  -3.7689  -3.7689
    -3.7377  -3.7374  -3.6918  -3.6767  -3.6767  -3.6575  -3.6574  -3.5894
    -3.5892  -3.5696  -3.5569  -3.5567  -3.4818  -3.4817  -3.4762  -3.4760
    -3.4604  -3.4602  -3.4516  -3.4515  -3.2947  -3.2946  -3.2857  -3.2854
    -3.2799  -3.2383  -3.2382  -3.2294  -3.2290  -3.1735  -3.1734  -3.1627
    -3.1626  -3.1200  -3.0986  -3.0983  -3.0758  -3.0700  -3.0699  -3.0229
    -3.0228  -3.0107  -3.0106  -3.0000  -2.9999  -2.9607  -2.9607  -2.9344
    -2.9343  -2.9274  -2.9273  -2.9143  -2.8540  -2.8510  -2.8509  -2.8120
    -2.8118  -2.7504  -2.7498  -2.7210  -2.7148  -2.7071  -2.7071  -2.6985
    -2.6716  -2.6712  -2.6617  -2.6437  -2.6237  -2.6235  -2.6234  -2.6003
    -2.6002  -2.5925  -2.5919  -2.5915  -2.5911  -2.5670  -2.5237  -2.5000
    -2.4999  -2.4815  -2.4727  -2.4714  -2.4714  -2.4543  -2.4541  -2.4424
    -2.4201  -2.4178  -2.4174  -2.4086  -2.4081  -2.4057  -2.3727  -2.3694
    -2.3692  -2.3677  -2.3674  -2.3098  -2.2919  -2.2903  -2.2866  -2.2865
    -2.2659  -2.2656  -2.2617  -2.2379  -2.2378  -2.2246  -2.2122  -2.2121
    -2.1992  -2.1971  -2.1971  -2.1648  -2.1647  -2.1300  -2.1122  -2.1119
    -2.1086  -2.1046  -2.1042  -2.1041  -2.1013  -2.1009  -2.1004  -2.0999
    -2.0744  -2.0743  -1.9478  -1.9478  -1.9144  -1.9144  -1.9114  -1.8970
    -1.8970  -1.8906  -1.8895  -1.8892  -1.8890  -1.8727  -1.8681  -1.8506
    -1.8506  -1.8445  -1.8438  -1.8435  -1.8106  -1.8105  -1.7947  -1.7937
    -1.7655  -1.7579  -1.7578  -1.7358  -1.7301  -1.7188  -1.7186  -1.7074
    -1.6909  -1.6909  -1.6787  -1.6785  -1.6508  -1.6507  -1.6363  -1.6355
    -1.6032  -1.6030  -1.5963  -1.5400  -1.5392  -1.5208  -1.5207  -1.5181
    -1.4895  -1.4868  -1.4609  -1.4596  -1.4592  -1.4296  -1.4239  -1.4239
    -1.4011  -1.4009  -1.3779  -1.3713  -1.3711  -1.3419  -1.3290  -1.3290
    -1.2700  -1.2699  -1.2669  -1.2668  -1.2393  -1.2386  -1.2276  -1.2261
    -1.2261  -1.2113  -1.1732  -1.1728  -1.1599  -1.1232  -1.1232  -1.1232
    -1.1222  -1.1194  -1.1194  -1.0964  -1.0964  -1.0954  -1.0564  -1.0560
    -1.0448  -1.0445  -1.0386  -1.0382  -1.0201  -0.9995  -0.9995  -0.9771
    -0.9770  -0.8907  -0.8756  -0.8740  -0.8739  -0.8720  -0.8661  -0.8657
    -0.8442  -0.8371  -0.8162  -0.8160  -0.8091  -0.8091  -0.7937  -0.7758
    -0.7727  -0.7727  -0.7653  -0.6945  -0.6943  -0.6576  -0.6576  -0.6522
    -0.6494  -0.6493  -0.6437  -0.6436  -0.6341  -0.6337  -0.6187  -0.5883
    -0.5791  -0.5577  -0.5577  -0.5438  -0.5437  -0.5333  -0.5331  -0.5327
    -0.5309  -0.5308  -0.5126  -0.5119  -0.5117  -0.4773  -0.4763  -0.4760
    -0.4660  -0.4659  -0.4459  -0.4120  -0.4120  -0.4028  -0.4027  -0.3346
    -0.3345  -0.3030  -0.3024  -0.2447  -0.2443  -0.2436  -0.2279  -0.2215
     0.0182   0.0183   0.3619   0.3619   0.4626   0.4628   0.6582   0.6595
     0.6797   0.7988   0.7988   1.2426   1.2428   1.2478   1.5191   1.5530
     1.5532   1.8304   1.8304   1.8958   1.8960   1.9464   1.9465   2.1529
     2.1535   2.2538   2.2538   2.3276   2.3925   2.3926   2.5656   2.6542
     3.0867   3.0868   3.1054   3.1056   3.1538   3.1542   3.4477   3.4483
     3.7279   3.7279   3.8357   4.1445   4.1925   4.1926   4.4116   4.4117
     4.4803   4.4809   4.5739   4.6942   4.6947   4.8146   4.8149   5.1100
     5.1934   5.1936   5.3616   5.3616   5.4986   5.5680   5.5682   5.6025
     5.6027   5.6550   5.6558   5.7161   6.0422   6.0429   6.2672   6.3258
     6.3259   6.3960   6.3967   6.4239   6.4239   6.5825   6.6527   6.6529
     6.7552   6.8967   6.8968   6.9073   6.9073   7.1605

          k = 0.0000-0.2887 0.1111 (136898 PWs)   bands (ev):

    -6.5855  -5.7930  -5.5340  -5.4422  -5.4422  -4.9027  -4.9027  -4.8043
    -4.7705  -4.6236  -4.5978  -4.5240  -4.5218  -4.5218  -4.4571  -4.4568
    -4.3295  -4.2872  -4.2868  -4.2418  -4.2284  -4.2283  -4.0979  -4.0978
    -4.0676  -4.0675  -4.0674  -4.0447  -4.0161  -4.0155  -3.9272  -3.9115
    -3.9111  -3.8988  -3.8809  -3.8806  -3.8724  -3.8650  -3.8649  -3.8226
    -3.8225  -3.8121  -3.8120  -3.8080  -3.8076  -3.7790  -3.7689  -3.7689
    -3.7377  -3.7374  -3.6918  -3.6767  -3.6767  -3.6575  -3.6574  -3.5894
    -3.5892  -3.5696  -3.5569  -3.5567  -3.4818  -3.4817  -3.4762  -3.4760
    -3.4604  -3.4602  -3.4516  -3.4515  -3.2947  -3.2946  -3.2857  -3.2854
    -3.2799  -3.2382  -3.2382  -3.2294  -3.2290  -3.1735  -3.1734  -3.1627
    -3.1626  -3.1200  -3.0986  -3.0983  -3.0758  -3.0700  -3.0699  -3.0229
    -3.0227  -3.0107  -3.0106  -3.0000  -2.9999  -2.9607  -2.9607  -2.9344
    -2.9343  -2.9274  -2.9273  -2.9143  -2.8540  -2.8510  -2.8509  -2.8120
    -2.8118  -2.7504  -2.7498  -2.7210  -2.7149  -2.7071  -2.7071  -2.6984
    -2.6716  -2.6712  -2.6617  -2.6437  -2.6237  -2.6235  -2.6234  -2.6003
    -2.6002  -2.5925  -2.5919  -2.5915  -2.5911  -2.5670  -2.5237  -2.5000
    -2.4998  -2.4815  -2.4727  -2.4714  -2.4714  -2.4543  -2.4541  -2.4425
    -2.4201  -2.4178  -2.4174  -2.4086  -2.4081  -2.4057  -2.3727  -2.3694
    -2.3692  -2.3677  -2.3674  -2.3098  -2.2919  -2.2903  -2.2866  -2.2865
    -2.2659  -2.2656  -2.2617  -2.2379  -2.2378  -2.2246  -2.2122  -2.2121
    -2.1992  -2.1971  -2.1971  -2.1648  -2.1647  -2.1300  -2.1122  -2.1119
    -2.1086  -2.1046  -2.1042  -2.1041  -2.1013  -2.1009  -2.1004  -2.0999
    -2.0744  -2.0743  -1.9478  -1.9478  -1.9144  -1.9144  -1.9114  -1.8970
    -1.8970  -1.8906  -1.8895  -1.8891  -1.8890  -1.8727  -1.8681  -1.8506
    -1.8506  -1.8445  -1.8438  -1.8435  -1.8106  -1.8105  -1.7947  -1.7937
    -1.7655  -1.7579  -1.7578  -1.7358  -1.7301  -1.7188  -1.7186  -1.7074
    -1.6909  -1.6909  -1.6787  -1.6785  -1.6508  -1.6507  -1.6363  -1.6355
    -1.6032  -1.6030  -1.5963  -1.5400  -1.5392  -1.5208  -1.5207  -1.5181
    -1.4894  -1.4868  -1.4609  -1.4596  -1.4592  -1.4296  -1.4239  -1.4239
    -1.4011  -1.4009  -1.3779  -1.3713  -1.3711  -1.3419  -1.3290  -1.3290
    -1.2700  -1.2699  -1.2669  -1.2669  -1.2393  -1.2386  -1.2276  -1.2261
    -1.2261  -1.2112  -1.1732  -1.1728  -1.1599  -1.1232  -1.1232  -1.1232
    -1.1222  -1.1194  -1.1194  -1.0964  -1.0964  -1.0953  -1.0564  -1.0560
    -1.0448  -1.0445  -1.0386  -1.0382  -1.0201  -0.9995  -0.9995  -0.9771
    -0.9770  -0.8907  -0.8756  -0.8740  -0.8739  -0.8720  -0.8661  -0.8657
    -0.8442  -0.8371  -0.8162  -0.8160  -0.8091  -0.8091  -0.7937  -0.7758
    -0.7727  -0.7727  -0.7653  -0.6945  -0.6943  -0.6576  -0.6576  -0.6522
    -0.6494  -0.6493  -0.6437  -0.6436  -0.6341  -0.6337  -0.6187  -0.5883
    -0.5791  -0.5577  -0.5577  -0.5438  -0.5437  -0.5333  -0.5331  -0.5327
    -0.5309  -0.5308  -0.5126  -0.5119  -0.5117  -0.4773  -0.4763  -0.4760
    -0.4660  -0.4659  -0.4459  -0.4120  -0.4120  -0.4028  -0.4027  -0.3346
    -0.3345  -0.3030  -0.3024  -0.2447  -0.2443  -0.2436  -0.2279  -0.2215
     0.0182   0.0183   0.3619   0.3619   0.4626   0.4628   0.6582   0.6595
     0.6797   0.7988   0.7988   1.2426   1.2428   1.2478   1.5191   1.5530
     1.5532   1.8304   1.8304   1.8958   1.8960   1.9464   1.9465   2.1529
     2.1535   2.2538   2.2538   2.3276   2.3925   2.3926   2.5656   2.6542
     3.0867   3.0868   3.1054   3.1056   3.1538   3.1542   3.4477   3.4483
     3.7279   3.7279   3.8357   4.1445   4.1925   4.1926   4.4116   4.4117
     4.4803   4.4809   4.5739   4.6942   4.6947   4.8146   4.8149   5.1100
     5.1934   5.1936   5.3616   5.3616   5.4987   5.5680   5.5682   5.6025
     5.6027   5.6550   5.6558   5.7161   6.0419   6.0428   6.2672   6.3262
     6.3262   6.3960   6.3967   6.4239   6.4239   6.5831   6.6527   6.6529
     6.7596   6.8967   6.8968   6.9067   6.9068   7.1595

          k = 0.0000 0.2887 0.1111 (136898 PWs)   bands (ev):

    -6.5855  -5.7930  -5.5340  -5.4422  -5.4422  -4.9027  -4.9027  -4.8043
    -4.7705  -4.6236  -4.5978  -4.5240  -4.5218  -4.5218  -4.4571  -4.4568
    -4.3295  -4.2872  -4.2868  -4.2418  -4.2284  -4.2283  -4.0979  -4.0978
    -4.0676  -4.0675  -4.0674  -4.0447  -4.0161  -4.0155  -3.9272  -3.9115
    -3.9111  -3.8988  -3.8809  -3.8806  -3.8724  -3.8650  -3.8649  -3.8226
    -3.8225  -3.8121  -3.8120  -3.8080  -3.8076  -3.7790  -3.7689  -3.7689
    -3.7377  -3.7374  -3.6918  -3.6767  -3.6767  -3.6575  -3.6574  -3.5894
    -3.5892  -3.5696  -3.5569  -3.5567  -3.4818  -3.4817  -3.4762  -3.4760
    -3.4604  -3.4602  -3.4516  -3.4515  -3.2947  -3.2946  -3.2857  -3.2854
    -3.2799  -3.2383  -3.2382  -3.2294  -3.2290  -3.1735  -3.1734  -3.1627
    -3.1626  -3.1200  -3.0986  -3.0983  -3.0758  -3.0700  -3.0699  -3.0229
    -3.0228  -3.0107  -3.0106  -3.0000  -2.9999  -2.9607  -2.9607  -2.9344
    -2.9343  -2.9274  -2.9273  -2.9143  -2.8540  -2.8510  -2.8509  -2.8120
    -2.8118  -2.7504  -2.7498  -2.7210  -2.7148  -2.7071  -2.7071  -2.6985
    -2.6716  -2.6712  -2.6617  -2.6437  -2.6237  -2.6235  -2.6234  -2.6003
    -2.6002  -2.5925  -2.5919  -2.5915  -2.5911  -2.5670  -2.5237  -2.5000
    -2.4999  -2.4815  -2.4727  -2.4714  -2.4714  -2.4543  -2.4541  -2.4424
    -2.4201  -2.4178  -2.4174  -2.4086  -2.4081  -2.4057  -2.3727  -2.3694
    -2.3692  -2.3677  -2.3674  -2.3098  -2.2919  -2.2903  -2.2866  -2.2865
    -2.2659  -2.2656  -2.2617  -2.2379  -2.2378  -2.2246  -2.2122  -2.2121
    -2.1992  -2.1971  -2.1971  -2.1648  -2.1647  -2.1300  -2.1122  -2.1119
    -2.1086  -2.1046  -2.1042  -2.1041  -2.1013  -2.1009  -2.1004  -2.0999
    -2.0744  -2.0743  -1.9478  -1.9478  -1.9144  -1.9144  -1.9114  -1.8970
    -1.8970  -1.8906  -1.8895  -1.8892  -1.8890  -1.8727  -1.8681  -1.8506
    -1.8506  -1.8445  -1.8438  -1.8435  -1.8106  -1.8105  -1.7947  -1.7937
    -1.7655  -1.7579  -1.7578  -1.7358  -1.7301  -1.7188  -1.7186  -1.7074
    -1.6909  -1.6909  -1.6787  -1.6785  -1.6508  -1.6507  -1.6363  -1.6355
    -1.6032  -1.6030  -1.5963  -1.5400  -1.5392  -1.5208  -1.5207  -1.5181
    -1.4895  -1.4868  -1.4609  -1.4596  -1.4592  -1.4296  -1.4239  -1.4239
    -1.4011  -1.4009  -1.3779  -1.3713  -1.3711  -1.3419  -1.3290  -1.3290
    -1.2700  -1.2699  -1.2669  -1.2668  -1.2393  -1.2386  -1.2276  -1.2261
    -1.2261  -1.2113  -1.1732  -1.1728  -1.1599  -1.1232  -1.1232  -1.1232
    -1.1222  -1.1194  -1.1194  -1.0964  -1.0964  -1.0954  -1.0564  -1.0560
    -1.0448  -1.0445  -1.0386  -1.0382  -1.0201  -0.9995  -0.9995  -0.9771
    -0.9770  -0.8907  -0.8756  -0.8740  -0.8739  -0.8720  -0.8661  -0.8657
    -0.8442  -0.8371  -0.8162  -0.8160  -0.8091  -0.8091  -0.7937  -0.7758
    -0.7727  -0.7727  -0.7653  -0.6945  -0.6943  -0.6576  -0.6576  -0.6522
    -0.6494  -0.6493  -0.6437  -0.6436  -0.6341  -0.6337  -0.6187  -0.5883
    -0.5791  -0.5577  -0.5577  -0.5438  -0.5437  -0.5333  -0.5331  -0.5327
    -0.5309  -0.5308  -0.5126  -0.5119  -0.5117  -0.4773  -0.4763  -0.4760
    -0.4660  -0.4659  -0.4459  -0.4120  -0.4120  -0.4028  -0.4027  -0.3346
    -0.3345  -0.3030  -0.3024  -0.2447  -0.2443  -0.2436  -0.2279  -0.2215
     0.0182   0.0183   0.3619   0.3619   0.4626   0.4628   0.6582   0.6595
     0.6797   0.7988   0.7988   1.2426   1.2428   1.2478   1.5191   1.5530
     1.5532   1.8304   1.8304   1.8958   1.8960   1.9464   1.9465   2.1529
     2.1535   2.2538   2.2538   2.3276   2.3925   2.3926   2.5656   2.6542
     3.0867   3.0868   3.1054   3.1056   3.1538   3.1542   3.4477   3.4483
     3.7279   3.7279   3.8357   4.1445   4.1925   4.1926   4.4116   4.4117
     4.4803   4.4809   4.5739   4.6942   4.6947   4.8146   4.8149   5.1100
     5.1934   5.1936   5.3616   5.3616   5.4986   5.5680   5.5682   5.6025
     5.6027   5.6550   5.6558   5.7161   6.0422   6.0429   6.2672   6.3258
     6.3259   6.3960   6.3967   6.4239   6.4239   6.5825   6.6527   6.6529
     6.7552   6.8967   6.8968   6.9073   6.9073   7.1605

     the Fermi energy is     1.3863 ev

!    total energy              =   -6569.73357721 Ry
     Harris-Foulkes estimate   =   -6569.73357721 Ry
     estimated scf accuracy    <          5.0E-09 Ry

     The total energy is the sum of the following terms:

     one-electron contribution =  -48781.45259529 Ry
     hartree contribution      =   24887.09650553 Ry
     xc contribution           =   -3196.30491344 Ry
     ewald contribution        =   20520.92568272 Ry
     smearing contrib. (-TS)   =       0.00174326 Ry

     convergence has been achieved in  17 iterations

     Forces acting on atoms (Ry/au):


     negative rho (up, down):  1.752E+00 0.000E+00
     atom    1 type  1   force =     0.00017055    0.00031076   -0.00261904
     atom    2 type  1   force =     0.00019609    0.00007231   -0.00269993
     atom    3 type  1   force =     0.00019100    0.00010004   -0.00270213
     atom    4 type  1   force =     0.00022252   -0.00017992   -0.00252498
     atom    5 type  1   force =    -0.00003261    0.00022167   -0.00267014
     atom    6 type  1   force =    -0.00000997   -0.00001480   -0.00275265
     atom    7 type  1   force =    -0.00001239    0.00001105   -0.00275601
     atom    8 type  1   force =     0.00001264   -0.00026224   -0.00257893
     atom    9 type  1   force =    -0.00002439    0.00022155   -0.00265483
     atom   10 type  1   force =     0.00000240   -0.00001637   -0.00273312
     atom   11 type  1   force =    -0.00000436    0.00001036   -0.00273666
     atom   12 type  1   force =     0.00002026   -0.00026056   -0.00256202
     atom   13 type  1   force =    -0.00023917    0.00016666   -0.00248885
     atom   14 type  1   force =    -0.00020814   -0.00007181   -0.00256965
     atom   15 type  1   force =    -0.00020845   -0.00004745   -0.00257083
     atom   16 type  1   force =    -0.00018591   -0.00031865   -0.00239540
     atom   17 type  1   force =     0.00025738    0.00041780    0.00457480
     atom   18 type  1   force =     0.00028234    0.00008596    0.00468312
     atom   19 type  1   force =     0.00028365    0.00010560    0.00468816
     atom   20 type  1   force =     0.00031707   -0.00021879    0.00478116
     atom   21 type  1   force =    -0.00001678    0.00032254    0.00457738
     atom   22 type  1   force =     0.00000244   -0.00000307    0.00469511
     atom   23 type  1   force =    -0.00000162    0.00001895    0.00469483
     atom   24 type  1   force =     0.00003239   -0.00030561    0.00478418
     atom   25 type  1   force =     0.00000073    0.00032136    0.00459166
     atom   26 type  1   force =     0.00002203   -0.00000110    0.00470705
     atom   27 type  1   force =     0.00001537    0.00002035    0.00470956
     atom   28 type  1   force =     0.00004428   -0.00030014    0.00479641
     atom   29 type  1   force =    -0.00028513    0.00020149    0.00461431
     atom   30 type  1   force =    -0.00025202   -0.00012808    0.00472855
     atom   31 type  1   force =    -0.00025935   -0.00010924    0.00473245
     atom   32 type  1   force =    -0.00023737   -0.00042874    0.00482484
     atom   33 type  1   force =     0.00022767    0.00043393   -0.00458504
     atom   34 type  1   force =     0.00028315    0.00014581   -0.00458580
     atom   35 type  1   force =     0.00027729    0.00015630   -0.00460259
     atom   36 type  1   force =     0.00031635   -0.00014719   -0.00462734
     atom   37 type  1   force =    -0.00006167    0.00028980   -0.00469464
     atom   38 type  1   force =    -0.00000246    0.00000340   -0.00470206
     atom   39 type  1   force =    -0.00001035    0.00001893   -0.00471320
     atom   40 type  1   force =     0.00002209   -0.00027927   -0.00473939
     atom   41 type  1   force =    -0.00004549    0.00030052   -0.00469840
     atom   42 type  1   force =     0.00002353    0.00000695   -0.00470336
     atom   43 type  1   force =     0.00001121    0.00002604   -0.00471876
     atom   44 type  1   force =     0.00003687   -0.00027370   -0.00474247
     atom   45 type  1   force =    -0.00035410    0.00016572   -0.00479123
     atom   46 type  1   force =    -0.00028263   -0.00012917   -0.00479422
     atom   47 type  1   force =    -0.00028407   -0.00011707   -0.00480815
     atom   48 type  1   force =    -0.00025877   -0.00042026   -0.00483694
     atom   49 type  1   force =     0.00018175    0.00030384    0.00262715
     atom   50 type  1   force =     0.00020650    0.00008311    0.00267918
     atom   51 type  1   force =     0.00020389    0.00009117    0.00266231
     atom   52 type  1   force =     0.00026617   -0.00012570    0.00249472
     atom   53 type  1   force =    -0.00003030    0.00020611    0.00270901
     atom   54 type  1   force =    -0.00000621   -0.00001308    0.00276159
     atom   55 type  1   force =    -0.00001323   -0.00000263    0.00274295
     atom   56 type  1   force =     0.00004553   -0.00021631    0.00257928
     atom   57 type  1   force =    -0.00000694    0.00021536    0.00271637
     atom   58 type  1   force =     0.00001816   -0.00000580    0.00276475
     atom   59 type  1   force =     0.00001013    0.00000452    0.00274902
     atom   60 type  1   force =     0.00006211   -0.00020372    0.00258414
     atom   61 type  1   force =    -0.00027175    0.00010169    0.00253793
     atom   62 type  1   force =    -0.00023630   -0.00012302    0.00259007
     atom   63 type  1   force =    -0.00023610   -0.00011573    0.00257014
     atom   64 type  1   force =    -0.00018753   -0.00032245    0.00240652

     Total force =     0.021646     Total SCF correction =     0.000267

     BFGS Geometry Optimization

     number of scf cycles    =   1
     number of bfgs steps    =   0

     energy   new            =   -6569.7335772134 Ry

     new trust radius        =       0.0048620504 bohr
     new conv_thr            =       0.0000000100 Ry


ATOMIC_POSITIONS (angstrom)
Au       4.261117000   7.380470000   0.000000000    0   0   0
Au       5.765040000   4.775598000   0.000000000    0   0   0
Au       7.268964000   2.170727000   0.000000000    0   0   0
Au       8.772887000  -0.434145000   0.000000000    0   0   0
Au       1.253270000   7.380470000   0.000000000    0   0   0
Au       2.757193000   4.775598000   0.000000000    0   0   0
Au       4.261117000   2.170727000   0.000000000    0   0   0
Au       5.765040000  -0.434145000   0.000000000    0   0   0
Au      -1.754577000   7.380470000   0.000000000    0   0   0
Au      -0.250654000   4.775598000   0.000000000    0   0   0
Au       1.253270000   2.170727000   0.000000000    0   0   0
Au       2.757193000  -0.434145000   0.000000000    0   0   0
Au      -4.762424000   7.380470000   0.000000000    0   0   0
Au      -3.258500000   4.775598000   0.000000000    0   0   0
Au      -1.754577000   2.170727000   0.000000000    0   0   0
Au      -0.250654000  -0.434145000   0.000000000    0   0   0
Au       5.765040000   8.248760000   2.455896000    0   0   0
Au       7.268964000   5.643889000   2.455896000    0   0   0
Au       8.772887000   3.039017000   2.455896000    0   0   0
Au      10.276810000   0.434145000   2.455896000    0   0   0
Au       2.757193000   8.248760000   2.455896000    0   0   0
Au       4.261117000   5.643889000   2.455896000    0   0   0
Au       5.765040000   3.039017000   2.455896000    0   0   0
Au       7.268964000   0.434145000   2.455896000    0   0   0
Au      -0.250654000   8.248760000   2.455896000    0   0   0
Au       1.253270000   5.643889000   2.455896000    0   0   0
Au       2.757193000   3.039017000   2.455896000    0   0   0
Au       4.261117000   0.434145000   2.455896000    0   0   0
Au      -3.258500000   8.248760000   2.455896000    0   0   0
Au      -1.754577000   5.643889000   2.455896000    0   0   0
Au      -0.250654000   3.039017000   2.455896000    0   0   0
Au       1.253270000   0.434145000   2.455896000    0   0   0
Au       4.261237478   9.117280625   4.909366701
Au       5.765189835   6.512257158   4.909366302
Au       7.269110738   3.907389708   4.909357416
Au       8.773054405   1.302358108   4.909344315
Au       1.253237367   9.117204356   4.909308705
Au       2.757191700   6.512181801   4.909304775
Au       4.261111524   3.907317020   4.909298883
Au       5.765051692   1.302288218   4.909285023
Au      -1.754601074   9.117210028   4.909306716
Au      -0.250641550   6.512183678   4.909304089
Au       1.253275934   3.907320779   4.909295942
Au       2.757212512   1.302291164   4.909283391
Au      -4.762611379   9.117138697   4.909257589
Au      -3.258649559   6.512111644   4.909256010
Au      -1.754727326   3.907245050   4.909248638
Au      -0.250790936   1.302213611   4.909233403
Au       4.261213179   7.380630784   7.369080230
Au       5.765149274   4.775641982   7.369107762
Au       7.269071896   2.170775247   7.369098836
Au       8.773027850  -0.434211520   7.369010151
Au       1.253253967   7.380579067   7.369123546
Au       2.757189713   4.775591078   7.369151372
Au       4.261109997   2.170725606   7.369141507
Au       5.765064096  -0.434259468   7.369054896
Au      -1.754580671   7.380583963   7.369127443
Au      -0.250644392   4.775594930   7.369153042
Au       1.253275361   2.170729394   7.369144718
Au       2.757225869  -0.434252806   7.369057469
Au      -4.762567804   7.380523814   7.369033017
Au      -3.258625047   4.775532903   7.369060608
Au      -1.754701940   2.170665760   7.369050059
Au      -0.250753238  -0.434315634   7.368963477



     Writing output data file 111strucdevrelax.save
     Check: negative starting charge=   -1.727440
     NEW-OLD atomic charge density approx. for the potential
     Check: negative starting charge=   -1.728168

     negative rho (up, down):  1.753E+00 0.000E+00

     total cpu time spent up to now is     7249.8 secs

     Self-consistent Calculation

     iteration #  1     ecut=    50.00 Ry     beta=0.70
     Davidson diagonalization with overlap
     ethr =  1.00E-06,  avg # of iterations =  3.0

     Threshold (ethr) on eigenvalues was too large:
     Diagonalizing with lowered threshold

     Davidson diagonalization with overlap
     ethr =  3.78E-09,  avg # of iterations =  2.0

     negative rho (up, down):  1.753E+00 0.000E+00

     total cpu time spent up to now is     8069.3 secs

     total energy              =   -6569.73399623 Ry
     Harris-Foulkes estimate   =   -6569.73401714 Ry
     estimated scf accuracy    <       0.00002636 Ry

     iteration #  2     ecut=    50.00 Ry     beta=0.70
     Davidson diagonalization with overlap
     ethr =  3.74E-09,  avg # of iterations =  3.0

     negative rho (up, down):  1.753E+00 0.000E+00

     total cpu time spent up to now is     8523.4 secs

     total energy              =   -6569.73394325 Ry
     Harris-Foulkes estimate   =   -6569.73405937 Ry
     estimated scf accuracy    <       0.00069463 Ry

     iteration #  3     ecut=    50.00 Ry     beta=0.70
     Davidson diagonalization with overlap
     ethr =  3.74E-09,  avg # of iterations =  3.0

     negative rho (up, down):  1.753E+00 0.000E+00

     total cpu time spent up to now is     8944.9 secs

     total energy              =   -6569.73397883 Ry
     Harris-Foulkes estimate   =   -6569.73404348 Ry
     estimated scf accuracy    <       0.00062585 Ry

     iteration #  4     ecut=    50.00 Ry     beta=0.70
     Davidson diagonalization with overlap
     ethr =  3.74E-09,  avg # of iterations =  2.5

     negative rho (up, down):  1.753E+00 0.000E+00

     total cpu time spent up to now is     9340.9 secs

[...]
     6.7541   6.8916   6.8916   6.9029   6.9029   7.1611

          k = 0.0000-0.2887 0.1111 (136898 PWs)   bands (ev):

    -6.5953  -5.8032  -5.5116  -5.4528  -5.4528  -4.9144  -4.9144  -4.7828
    -4.7818  -4.6271  -4.5959  -4.5350  -4.5007  -4.5007  -4.4678  -4.4677
    -4.3392  -4.2975  -4.2974  -4.2372  -4.2162  -4.2160  -4.1139  -4.1138
    -4.0778  -4.0776  -4.0775  -4.0503  -4.0290  -4.0289  -3.9231  -3.9219
    -3.9217  -3.9008  -3.8842  -3.8840  -3.8716  -3.8716  -3.8581  -3.8283
    -3.8281  -3.8279  -3.8277  -3.7951  -3.7949  -3.7774  -3.7774  -3.7625
    -3.7192  -3.7189  -3.6892  -3.6735  -3.6735  -3.6693  -3.6692  -3.5947
    -3.5945  -3.5588  -3.5565  -3.5563  -3.4893  -3.4891  -3.4734  -3.4733
    -3.4423  -3.4419  -3.4416  -3.4413  -3.2879  -3.2878  -3.2620  -3.2618
    -3.2568  -3.2409  -3.2408  -3.2149  -3.2144  -3.1650  -3.1649  -3.1486
    -3.1485  -3.1282  -3.0796  -3.0791  -3.0599  -3.0550  -3.0549  -3.0140
    -3.0138  -3.0076  -3.0075  -2.9907  -2.9906  -2.9509  -2.9509  -2.9293
    -2.9290  -2.9260  -2.9259  -2.9230  -2.8456  -2.8455  -2.8444  -2.8154
    -2.8153  -2.7534  -2.7528  -2.7250  -2.7237  -2.7104  -2.7104  -2.7053
    -2.6754  -2.6753  -2.6660  -2.6481  -2.6224  -2.6224  -2.6222  -2.6013
    -2.6013  -2.5903  -2.5901  -2.5863  -2.5862  -2.5786  -2.5325  -2.4998
    -2.4997  -2.4842  -2.4703  -2.4636  -2.4635  -2.4561  -2.4561  -2.4547
    -2.4246  -2.4244  -2.4242  -2.4147  -2.4142  -2.3969  -2.3696  -2.3695
    -2.3686  -2.3679  -2.3676  -2.3228  -2.2912  -2.2908  -2.2906  -2.2836
    -2.2752  -2.2619  -2.2615  -2.2451  -2.2450  -2.2114  -2.2100  -2.2098
    -2.1913  -2.1895  -2.1895  -2.1564  -2.1563  -2.1155  -2.1149  -2.1073
    -2.1055  -2.1053  -2.0988  -2.0987  -2.0967  -2.0963  -2.0889  -2.0888
    -2.0722  -2.0722  -1.9447  -1.9447  -1.9122  -1.9061  -1.9061  -1.9009
    -1.9009  -1.8834  -1.8830  -1.8797  -1.8795  -1.8775  -1.8553  -1.8465
    -1.8465  -1.8434  -1.8347  -1.8342  -1.8119  -1.8119  -1.7834  -1.7828
    -1.7505  -1.7505  -1.7403  -1.7322  -1.7145  -1.7143  -1.7113  -1.6930
    -1.6808  -1.6808  -1.6733  -1.6732  -1.6461  -1.6460  -1.6292  -1.6286
    -1.5971  -1.5970  -1.5867  -1.5362  -1.5357  -1.5231  -1.5230  -1.5228
    -1.4980  -1.4950  -1.4614  -1.4607  -1.4603  -1.4271  -1.4167  -1.4166
    -1.4010  -1.4008  -1.3742  -1.3728  -1.3726  -1.3430  -1.3401  -1.3401
    -1.2775  -1.2775  -1.2638  -1.2638  -1.2478  -1.2471  -1.2346  -1.2346
    -1.2164  -1.2040  -1.1763  -1.1759  -1.1647  -1.1365  -1.1262  -1.1261
    -1.1148  -1.1147  -1.1125  -1.1068  -1.1068  -1.0937  -1.0625  -1.0622
    -1.0508  -1.0505  -1.0501  -1.0498  -1.0257  -1.0071  -1.0071  -0.9857
    -0.9856  -0.8928  -0.8796  -0.8739  -0.8739  -0.8700  -0.8648  -0.8645
    -0.8436  -0.8387  -0.8234  -0.8232  -0.8087  -0.8087  -0.7994  -0.7787
    -0.7787  -0.7774  -0.7691  -0.6971  -0.6969  -0.6625  -0.6625  -0.6587
    -0.6512  -0.6511  -0.6502  -0.6502  -0.6369  -0.6365  -0.6214  -0.5958
    -0.5815  -0.5612  -0.5612  -0.5497  -0.5496  -0.5368  -0.5366  -0.5356
    -0.5343  -0.5343  -0.5165  -0.5124  -0.5122  -0.4814  -0.4799  -0.4797
    -0.4678  -0.4677  -0.4485  -0.4162  -0.4161  -0.4069  -0.4068  -0.3388
    -0.3387  -0.3012  -0.3007  -0.2432  -0.2416  -0.2414  -0.2318  -0.2130
     0.0105   0.0107   0.3578   0.3578   0.4494   0.4496   0.6430   0.6556
     0.6755   0.8065   0.8066   1.2380   1.2380   1.2567   1.5143   1.5481
     1.5481   1.8258   1.8258   1.9045   1.9047   1.9322   1.9323   2.1609
     2.1612   2.2492   2.2492   2.3236   2.3886   2.3887   2.5530   2.6506
     3.0923   3.0923   3.0951   3.0953   3.1502   3.1506   3.4423   3.4424
     3.7249   3.7249   3.8310   4.1381   4.1815   4.1816   4.4068   4.4068
     4.4822   4.4827   4.5736   4.6916   4.6920   4.8090   4.8092   5.1134
     5.1830   5.1834   5.3566   5.3567   5.4956   5.5701   5.5703   5.5965
     5.5967   5.6605   5.6613   5.7111   6.0383   6.0420   6.2681   6.3223
     6.3223   6.4030   6.4035   6.4168   6.4169   6.5836   6.6579   6.6582
     6.7586   6.8916   6.8916   6.9024   6.9024   7.1601

          k = 0.0000 0.2887 0.1111 (136898 PWs)   bands (ev):

    -6.5953  -5.8032  -5.5116  -5.4528  -5.4528  -4.9144  -4.9144  -4.7828
    -4.7818  -4.6271  -4.5959  -4.5350  -4.5007  -4.5007  -4.4678  -4.4677
    -4.3392  -4.2975  -4.2974  -4.2372  -4.2162  -4.2160  -4.1139  -4.1138
    -4.0778  -4.0776  -4.0775  -4.0503  -4.0290  -4.0289  -3.9231  -3.9219
    -3.9217  -3.9008  -3.8842  -3.8840  -3.8716  -3.8716  -3.8581  -3.8283
    -3.8281  -3.8279  -3.8277  -3.7951  -3.7948  -3.7774  -3.7774  -3.7625
    -3.7192  -3.7189  -3.6892  -3.6735  -3.6735  -3.6693  -3.6692  -3.5947
    -3.5945  -3.5588  -3.5565  -3.5563  -3.4893  -3.4891  -3.4734  -3.4733
    -3.4423  -3.4419  -3.4416  -3.4413  -3.2879  -3.2878  -3.2620  -3.2618
    -3.2568  -3.2409  -3.2408  -3.2149  -3.2144  -3.1650  -3.1649  -3.1486
    -3.1485  -3.1281  -3.0796  -3.0791  -3.0599  -3.0550  -3.0549  -3.0140
    -3.0138  -3.0076  -3.0075  -2.9907  -2.9906  -2.9509  -2.9509  -2.9293
    -2.9290  -2.9260  -2.9259  -2.9230  -2.8456  -2.8455  -2.8444  -2.8154
    -2.8153  -2.7534  -2.7528  -2.7250  -2.7237  -2.7104  -2.7104  -2.7053
    -2.6754  -2.6753  -2.6660  -2.6481  -2.6224  -2.6224  -2.6222  -2.6013
    -2.6013  -2.5903  -2.5901  -2.5863  -2.5862  -2.5786  -2.5325  -2.4998
    -2.4997  -2.4842  -2.4703  -2.4636  -2.4635  -2.4562  -2.4561  -2.4547
    -2.4246  -2.4244  -2.4242  -2.4147  -2.4142  -2.3969  -2.3696  -2.3695
    -2.3687  -2.3679  -2.3676  -2.3228  -2.2912  -2.2908  -2.2906  -2.2836
    -2.2752  -2.2619  -2.2615  -2.2451  -2.2450  -2.2114  -2.2100  -2.2098
    -2.1913  -2.1895  -2.1895  -2.1564  -2.1563  -2.1155  -2.1149  -2.1073
    -2.1055  -2.1053  -2.0988  -2.0987  -2.0967  -2.0963  -2.0889  -2.0888
    -2.0722  -2.0722  -1.9447  -1.9447  -1.9122  -1.9061  -1.9061  -1.9009
    -1.9009  -1.8834  -1.8830  -1.8797  -1.8795  -1.8775  -1.8553  -1.8465
    -1.8465  -1.8434  -1.8347  -1.8342  -1.8119  -1.8119  -1.7834  -1.7828
    -1.7505  -1.7505  -1.7403  -1.7322  -1.7145  -1.7143  -1.7113  -1.6930
    -1.6808  -1.6808  -1.6733  -1.6732  -1.6461  -1.6460  -1.6292  -1.6286
    -1.5971  -1.5970  -1.5867  -1.5362  -1.5357  -1.5231  -1.5230  -1.5228
    -1.4980  -1.4950  -1.4614  -1.4607  -1.4603  -1.4271  -1.4167  -1.4166
    -1.4010  -1.4008  -1.3742  -1.3728  -1.3726  -1.3430  -1.3401  -1.3401
    -1.2775  -1.2775  -1.2638  -1.2638  -1.2478  -1.2471  -1.2346  -1.2346
    -1.2164  -1.2040  -1.1763  -1.1759  -1.1647  -1.1365  -1.1262  -1.1261
    -1.1148  -1.1147  -1.1125  -1.1068  -1.1068  -1.0937  -1.0625  -1.0622
    -1.0508  -1.0505  -1.0501  -1.0498  -1.0257  -1.0071  -1.0071  -0.9857
    -0.9856  -0.8928  -0.8796  -0.8739  -0.8739  -0.8700  -0.8648  -0.8645
    -0.8437  -0.8387  -0.8234  -0.8232  -0.8087  -0.8087  -0.7994  -0.7787
    -0.7787  -0.7775  -0.7691  -0.6971  -0.6969  -0.6625  -0.6625  -0.6587
    -0.6512  -0.6511  -0.6502  -0.6502  -0.6369  -0.6365  -0.6214  -0.5958
    -0.5815  -0.5612  -0.5612  -0.5497  -0.5496  -0.5368  -0.5366  -0.5356
    -0.5343  -0.5343  -0.5165  -0.5124  -0.5122  -0.4814  -0.4799  -0.4797
    -0.4678  -0.4677  -0.4485  -0.4162  -0.4161  -0.4069  -0.4068  -0.3388
    -0.3387  -0.3012  -0.3007  -0.2432  -0.2416  -0.2414  -0.2318  -0.2130
     0.0105   0.0107   0.3578   0.3578   0.4494   0.4496   0.6430   0.6556
     0.6755   0.8065   0.8065   1.2380   1.2380   1.2567   1.5143   1.5481
     1.5481   1.8258   1.8258   1.9045   1.9047   1.9322   1.9323   2.1609
     2.1612   2.2492   2.2492   2.3236   2.3886   2.3887   2.5530   2.6506
     3.0923   3.0923   3.0951   3.0953   3.1502   3.1506   3.4423   3.4424
     3.7249   3.7249   3.8310   4.1381   4.1815   4.1816   4.4068   4.4068
     4.4822   4.4827   4.5736   4.6916   4.6920   4.8090   4.8092   5.1134
     5.1830   5.1834   5.3566   5.3567   5.4956   5.5701   5.5703   5.5965
     5.5967   5.6605   5.6613   5.7111   6.0386   6.0422   6.2681   6.3220
     6.3220   6.4030   6.4035   6.4168   6.4169   6.5831   6.6580   6.6582
     6.7541   6.8916   6.8916   6.9029   6.9029   7.1611

     the Fermi energy is     1.3804 ev

!    total energy              =   -6569.73523212 Ry
     Harris-Foulkes estimate   =   -6569.73523212 Ry
     estimated scf accuracy    <          4.4E-11 Ry

     The total energy is the sum of the following terms:

     one-electron contribution =  -48757.87201032 Ry
     hartree contribution      =   24875.29555590 Ry
     xc contribution           =   -3196.28046352 Ry
     ewald contribution        =   20509.11878949 Ry
     smearing contrib. (-TS)   =       0.00289633 Ry

     convergence has been achieved in  14 iterations

     Forces acting on atoms (Ry/au):


     negative rho (up, down):  1.755E+00 0.000E+00
     atom    1 type  1   force =     0.00017547    0.00031748   -0.00250186
     atom    2 type  1   force =     0.00020327    0.00007532   -0.00258638
     atom    3 type  1   force =     0.00019799    0.00009120   -0.00257753
     atom    4 type  1   force =     0.00022406   -0.00017121   -0.00240829
     atom    5 type  1   force =    -0.00003161    0.00023080   -0.00256374
     atom    6 type  1   force =    -0.00000588   -0.00001184   -0.00264604
     atom    7 type  1   force =    -0.00000828    0.00000250   -0.00263973
     atom    8 type  1   force =     0.00001608   -0.00025963   -0.00246706
     atom    9 type  1   force =    -0.00003284    0.00022377   -0.00253885
     atom   10 type  1   force =    -0.00000705   -0.00001883   -0.00262415
     atom   11 type  1   force =    -0.00001133   -0.00000374   -0.00261529
     atom   12 type  1   force =     0.00001580   -0.00026696   -0.00244641
     atom   13 type  1   force =    -0.00023374    0.00017145   -0.00237522
     atom   14 type  1   force =    -0.00020883   -0.00007082   -0.00245701
     atom   15 type  1   force =    -0.00021282   -0.00005564   -0.00245112
     atom   16 type  1   force =    -0.00018651   -0.00031665   -0.00227937
     atom   17 type  1   force =     0.00022761    0.00038340    0.00239525
     atom   18 type  1   force =     0.00025771    0.00007913    0.00250461
     atom   19 type  1   force =     0.00025289    0.00007638    0.00251965
     atom   20 type  1   force =     0.00028236   -0.00022225    0.00249361
     atom   21 type  1   force =    -0.00000227    0.00032813    0.00252517
     atom   22 type  1   force =     0.00002956    0.00002122    0.00263587
     atom   23 type  1   force =     0.00002343    0.00001884    0.00265024
     atom   24 type  1   force =     0.00005529   -0.00028083    0.00262488
     atom   25 type  1   force =    -0.00001446    0.00031232    0.00250225
     atom   26 type  1   force =     0.00001475    0.00000624    0.00261170
     atom   27 type  1   force =     0.00001134    0.00000231    0.00262699
     atom   28 type  1   force =     0.00004210   -0.00029657    0.00260067
     atom   29 type  1   force =    -0.00026988    0.00020085    0.00250285
     atom   30 type  1   force =    -0.00024068   -0.00010450    0.00261356
     atom   31 type  1   force =    -0.00024665   -0.00010672    0.00262758
     atom   32 type  1   force =    -0.00021276   -0.00040565    0.00260239
     atom   33 type  1   force =    -0.00002041    0.00001595   -0.00011339
     atom   34 type  1   force =     0.00000798    0.00003704   -0.00001480
     atom   35 type  1   force =     0.00001322   -0.00005613   -0.00002306
     atom   36 type  1   force =     0.00002620   -0.00001491   -0.00002449
     atom   37 type  1   force =     0.00001365    0.00005551   -0.00006665
     atom   38 type  1   force =     0.00004237    0.00007660    0.00003434
     atom   39 type  1   force =     0.00004817   -0.00001678    0.00002433
     atom   40 type  1   force =     0.00006203    0.00002381    0.00002392
     atom   41 type  1   force =    -0.00007979    0.00000039   -0.00006594
     atom   42 type  1   force =    -0.00005278    0.00002290    0.00003299
     atom   43 type  1   force =    -0.00004682   -0.00007087    0.00002530
     atom   44 type  1   force =    -0.00003278   -0.00003018    0.00002318
     atom   45 type  1   force =    -0.00004691    0.00004223   -0.00012479
     atom   46 type  1   force =    -0.00001888    0.00006385   -0.00002465
     atom   47 type  1   force =    -0.00001463   -0.00002907   -0.00003428
     atom   48 type  1   force =    -0.00000031    0.00001107   -0.00003424
     atom   49 type  1   force =     0.00001172    0.00003869   -0.00003559
     atom   50 type  1   force =     0.00002792    0.00002474   -0.00001687
     atom   51 type  1   force =     0.00003162   -0.00004005   -0.00003806
     atom   52 type  1   force =     0.00005958   -0.00005791   -0.00002096
     atom   53 type  1   force =     0.00001112    0.00006085   -0.00003219
     atom   54 type  1   force =     0.00002784    0.00004748   -0.00001261
     atom   55 type  1   force =     0.00003281   -0.00001798   -0.00003495
     atom   56 type  1   force =     0.00006141   -0.00003583   -0.00001748
     atom   57 type  1   force =    -0.00006445    0.00001711   -0.00005062
     atom   58 type  1   force =    -0.00004980    0.00000437   -0.00003193
     atom   59 type  1   force =    -0.00004448   -0.00006062   -0.00005285
     atom   60 type  1   force =    -0.00001556   -0.00007987   -0.00003618
     atom   61 type  1   force =    -0.00004426    0.00005113   -0.00003711
     atom   62 type  1   force =    -0.00002885    0.00003850   -0.00001765
     atom   63 type  1   force =    -0.00002516   -0.00002621   -0.00004003
     atom   64 type  1   force =     0.00000409   -0.00004529   -0.00002191

     Total force =     0.000415     Total SCF correction =     0.000024

     bfgs converged in   6 scf cycles and   5 bfgs steps
     (criteria: energy <  1.0E-04, force <  1.0E-03)

     End of BFGS Geometry Optimization

     Final energy   =   -6569.7352321181 Ry
Begin final coordinates

ATOMIC_POSITIONS (angstrom)
Au       4.261117000   7.380470000   0.000000000    0   0   0
Au       5.765040000   4.775598000   0.000000000    0   0   0
Au       7.268964000   2.170727000   0.000000000    0   0   0
Au       8.772887000  -0.434145000   0.000000000    0   0   0
Au       1.253270000   7.380470000   0.000000000    0   0   0
Au       2.757193000   4.775598000   0.000000000    0   0   0
Au       4.261117000   2.170727000   0.000000000    0   0   0
Au       5.765040000  -0.434145000   0.000000000    0   0   0
Au      -1.754577000   7.380470000   0.000000000    0   0   0
Au      -0.250654000   4.775598000   0.000000000    0   0   0
Au       1.253270000   2.170727000   0.000000000    0   0   0
Au       2.757193000  -0.434145000   0.000000000    0   0   0
Au      -4.762424000   7.380470000   0.000000000    0   0   0
Au      -3.258500000   4.775598000   0.000000000    0   0   0
Au      -1.754577000   2.170727000   0.000000000    0   0   0
Au      -0.250654000  -0.434145000   0.000000000    0   0   0
Au       5.765040000   8.248760000   2.455896000    0   0   0
Au       7.268964000   5.643889000   2.455896000    0   0   0
Au       8.772887000   3.039017000   2.455896000    0   0   0
Au      10.276810000   0.434145000   2.455896000    0   0   0
Au       2.757193000   8.248760000   2.455896000    0   0   0
Au       4.261117000   5.643889000   2.455896000    0   0   0
Au       5.765040000   3.039017000   2.455896000    0   0   0
Au       7.268964000   0.434145000   2.455896000    0   0   0
Au      -0.250654000   8.248760000   2.455896000    0   0   0
Au       1.253270000   5.643889000   2.455896000    0   0   0
Au       2.757193000   3.039017000   2.455896000    0   0   0
Au       4.261117000   0.434145000   2.455896000    0   0   0
Au      -3.258500000   8.248760000   2.455896000    0   0   0
Au      -1.754577000   5.643889000   2.455896000    0   0   0
Au      -0.250654000   3.039017000   2.455896000    0   0   0
Au       1.253270000   0.434145000   2.455896000    0   0   0
Au       4.261936086   9.118745949   4.894181796
Au       5.766168858   6.512870680   4.894437955
Au       7.270077990   3.907733622   4.894344067
Au       8.774144024   1.301851563   4.894238208
Au       1.253081841   9.118316194   4.893897745
Au       2.757315175   6.512439707   4.894148627
Au       4.261219778   3.907303886   4.894058403
Au       5.765297248   1.301418763   4.893952753
Au      -1.755005563   9.118157099   4.893871056
Au      -0.250775832   6.512280371   4.894127734
Au       1.253129886   3.907144806   4.894032314
Au       2.757203248   1.301260700   4.893929884
Au      -4.763818999   9.117780756   4.893374701
Au      -3.259585414   6.511903063   4.893631474
Au      -1.755681715   3.906769930   4.893536782
Au      -0.251607469   1.300886748   4.893429919
Au       4.261843034   7.381735769   7.377424444
Au       5.765903940   4.775977024   7.377672754
Au       7.269820773   2.170961653   7.377541712
Au       8.774018470  -0.434744481   7.376971426
Au       1.253179795   7.381430866   7.377738213
Au       2.757243204   4.775669411   7.378001384
Au       4.261157347   2.170650070   7.377856520
Au       5.765354042  -0.435050225   7.377300462
Au      -1.754800224   7.381337914   7.377687123
Au      -0.250744359   4.775576254   7.377937998
Au       1.253174615   2.170560080   7.377811054
Au       2.757369880  -0.435145449   7.377237928
Au      -4.763507679   7.381007356   7.377074050
Au      -3.259441573   4.775242495   7.377336099
Au      -1.755528945   2.170226057   7.377192528
Au      -0.251327688  -0.435472367   7.376640090
End final coordinates



     Writing output data file 111strucdevrelax.save

     init_run     :    152.30s CPU    163.00s WALL (       1 calls)
     electrons    :  27531.45s CPU  28919.45s WALL (       6 calls)
     update_pot   :     69.36s CPU     73.55s WALL (       5 calls)
     forces       :    483.36s CPU    487.16s WALL (       6 calls)

     Called by init_run:
     wfcinit      :    127.66s CPU    135.87s WALL (       1 calls)
     potinit      :      6.10s CPU      7.47s WALL (       1 calls)

     Called by electrons:
     c_bands      :  23082.28s CPU  24195.42s WALL (      85 calls)
     sum_band     :   3358.20s CPU   3577.46s WALL (      85 calls)
     v_of_rho     :    321.96s CPU    357.74s WALL (      85 calls)
     newd         :    838.18s CPU    846.35s WALL (      85 calls)
     mix_rho      :      8.81s CPU      9.93s WALL (      85 calls)
     vdW_energy   :     22.93s CPU     26.21s WALL (      91 calls)
     vdW_ffts     :    172.52s CPU    191.04s WALL (     182 calls)
     vdW_v        :     47.05s CPU     49.59s WALL (      91 calls)

     Called by c_bands:
     init_us_2    :     47.02s CPU     48.37s WALL (    2124 calls)
     cegterg      :  22630.73s CPU  23727.44s WALL (    1020 calls)

     Called by *egterg:
     h_psi        :  11143.48s CPU  12079.92s WALL (    3665 calls)
     s_psi        :   1427.93s CPU   1435.76s WALL (    3665 calls)
     g_psi        :     22.29s CPU     22.51s WALL (    2633 calls)
     cdiaghg      :   4072.78s CPU   4082.87s WALL (    3521 calls)

     Called by h_psi:
     add_vuspsi   :   1426.67s CPU   1434.47s WALL (    3665 calls)

     General routines
     calbec       :   2567.06s CPU   2574.41s WALL (    4757 calls)
     fft          :    484.66s CPU    519.03s WALL (    5981 calls)
     ffts         :      4.97s CPU      5.91s WALL (     170 calls)
     fftw         :   9071.01s CPU  10125.71s WALL ( 2536452 calls)
     interpolate  :     13.44s CPU     15.93s WALL (     170 calls)
     davcio       :      0.00s CPU      0.21s WALL (      12 calls)

     Parallel routines
     fft_scatter  :   6934.60s CPU   7779.47s WALL ( 2542603 calls)

     PWSCF        :     7h51m CPU        8h15m WALL


   This run was terminated on:  20:39:45  22Jun2015            

=------------------------------------------------------------------------------=
   JOB DONE.
=------------------------------------------------------------------------------=
