
     Program PWSCF v.5.1.1 starts on 16Jun2015 at 15: 7:13 

     This program is part of the open-source Quantum ESPRESSO suite
     for quantum simulation of materials; please cite
         "P. Giannozzi et al., J. Phys.:Condens. Matter 21 395502 (2009);
          URL http://www.quantum-espresso.org", 
     in publications or presentations arising from this work. More details at
     http://www.quantum-espresso.org/quote

     Parallel version (MPI), running on     8 processors
     R & G space division:  proc/nbgrp/npool/nimage =       8
     Waiting for input...
     Reading input from standard input
Warning: card &IONS ignored
Warning: card / ignored
Warning: card &CELL ignored
Warning: card / ignored

     Current dimensions of program PWSCF are:
     Max number of different atomic species (ntypx) = 10
     Max number of k-points (npk) =  40000
     Max angular momentum in pseudopotentials (lmaxx) =  3

     IMPORTANT: XC functional enforced from input :
     Exchange-correlation      = VDW-DF ( 1  4  4  0 1 0)
     Any further DFT definition will be discarded
     Please, verify this is what you really want


     Subspace diagonalization in iterative solution of the eigenvalue problem:
     a serial algorithm will be used


     Parallelization info
     --------------------
     sticks:   dense  smooth     PW     G-vecs:    dense   smooth      PW
     Min        1783     893    233               387139   136875   18145
     Max        1784     894    234               387152   136900   18148
     Sum       14269    7147   1867              3097177  1095093  145167


     Title: 
     GOLD                                                                       


     bravais-lattice index     =            4
     lattice parameter (alat)  =      22.7436  a.u.
     unit-cell volume          =   22924.1508 (a.u.)^3
     number of atoms/cell      =            3
     number of atomic types    =            2
     number of electrons       =         8.00
     number of Kohn-Sham states=            8
     kinetic-energy cutoff     =      50.0000  Ry
     charge density cutoff     =     400.0000  Ry
     convergence threshold     =      1.0E-08
     mixing beta               =       0.7000
     number of iterations used =            8  plain     mixing
     Exchange-correlation      = VDW-DF ( 1  4  4  0 1 0)

     celldm(1)=  22.743643  celldm(2)=   0.000000  celldm(3)=   2.250000
     celldm(4)=   0.000000  celldm(5)=   0.000000  celldm(6)=   0.000000

     crystal axes: (cart. coord. in units of alat)
               a(1) = (   1.000000   0.000000   0.000000 )  
               a(2) = (  -0.500000   0.866025   0.000000 )  
               a(3) = (   0.000000   0.000000   2.250000 )  

     reciprocal axes: (cart. coord. in units 2 pi/alat)
               b(1) = (  1.000000  0.577350 -0.000000 )  
               b(2) = (  0.000000  1.154701  0.000000 )  
               b(3) = (  0.000000 -0.000000  0.444444 )  


     PseudoPot. # 1 for H  read from file:
     /home/andrejb/Andrej/qe/pseudo/H.pbe-van_ak.UPF
     MD5 check sum: 403db7282739603aa925980fa9b8608d
     Pseudo is Ultrasoft, Zval =  1.0
     Generated by new atomic code, or converted to UPF format
     Using radial grid of  615 points,  1 beta functions with: 
                l(1) =   0
     Q(r) pseudized with  8 coefficients,  rinner =    0.800

     PseudoPot. # 2 for O  read from file:
     /home/andrejb/Andrej/qe/pseudo/O.pbe-van_ak.UPF
     MD5 check sum: 4b8c549914a63cae506c6ff22b5af4fe
     Pseudo is Ultrasoft, Zval =  6.0
     Generated by new atomic code, or converted to UPF format
     Using radial grid of  737 points,  4 beta functions with: 
                l(1) =   0
                l(2) =   0
                l(3) =   1
                l(4) =   1
     Q(r) pseudized with  8 coefficients,  rinner =    0.800   0.800   0.800


     vdW kernel table read from file vdW_kernel_table
     MD5 check sum: 48e77a2e26edf626eeb0eaa751ad5cac

     atomic species   valence    mass     pseudopotential
        H              1.00     1.01000     H ( 1.00)
        O              6.00    16.00000     O ( 1.00)

     No symmetry found



   Cartesian axes

     site n.     atom                  positions (alat units)
         1           O   tau(   1) = (   0.3540481   0.6132292   0.8448141  )
         2           H   tau(   2) = (   0.3041147   0.5716816   0.8930676  )
         3           H   tau(   3) = (   0.4024675   0.6535362   0.8955747  )

     number of k points=    12  Marzari-Vanderbilt smearing, width (Ry)=  0.0200
                       cart. coord. in units 2pi/alat
        k(    1) = (   0.2500000   0.4330127   0.1111111), wk =   0.1666667
        k(    2) = (   0.2500000  -0.1443376   0.1111111), wk =   0.1666667
        k(    3) = (  -0.2500000  -0.4330127   0.1111111), wk =   0.1666667
        k(    4) = (  -0.2500000   0.4330127  -0.1111111), wk =   0.1666667
        k(    5) = (   0.2500000  -0.4330127  -0.1111111), wk =   0.1666667
        k(    6) = (   0.5000000   0.0000000   0.1111111), wk =   0.1666667
        k(    7) = (  -0.5000000   0.0000000   0.1111111), wk =   0.1666667
        k(    8) = (  -0.2500000   0.1443376   0.1111111), wk =   0.1666667
        k(    9) = (  -0.2500000  -0.1443376  -0.1111111), wk =   0.1666667
        k(   10) = (   0.2500000   0.1443376  -0.1111111), wk =   0.1666667
        k(   11) = (   0.0000000  -0.2886751   0.1111111), wk =   0.1666667
        k(   12) = (   0.0000000   0.2886751   0.1111111), wk =   0.1666667

     Dense  grid:  3097177 G-vectors     FFT dimensions: ( 150, 150, 360)

     Smooth grid:  1095093 G-vectors     FFT dimensions: ( 108, 108, 240)

     Largest allocated arrays     est. size (Mb)     dimensions
        Kohn-Sham Wavefunctions         2.09 Mb     (   17118,    8)
        NL pseudopotentials             2.61 Mb     (   17118,   10)
        Each V/rho on FFT grid         15.45 Mb     ( 1012500)
        Each G-vector array             2.95 Mb     (  387141)
        G-vector shells                 0.22 Mb     (   29038)
     Largest temporary arrays     est. size (Mb)     dimensions
        Auxiliary wavefunctions         8.36 Mb     (   17118,   32)
        Each subspace H/S matrix        0.02 Mb     (      32,   32)
        Each <psi_i|beta_j> matrix      0.00 Mb     (      10,    8)
        Arrays for rho mixing         123.60 Mb     ( 1012500,    8)

     Initial potential from superposition of free atoms
     Check: negative starting charge=   -0.004319

     starting charge    7.99998, renormalised to    8.00000

     negative rho (up, down):  4.319E-03 0.000E+00


     ************************************************************************
     *
     * You are using vdW-DF for exchange-correlation in this calculation.
     * Please cite the following three references that made this development
     * possible:
     *
     *   M. Dion, H. Rydberg, E. Schroder, D. C. Langreth, and
     *   B. I. Lundqvist, Phys. Rev. Lett. 92, 246401 (2004).
     *
     *   T. Thonhauser, V. R. Cooper, S. Li, A. Puzder, P. Hyldgaard, and
     *   D. C. Langreth, Phys. Rev. B 76, 125112 (2007).
     *
     *   G. Roman-Perez and J. M. Soler, Phys. Rev. Lett. 103, 096102 (2009).
     *
     *
     * If you are using vdW-DF2, please also cite:
     *
     *   K. Lee, E. D. Murray, L. Kong, B. I. Lundqvist, and
     *   D. C. Langreth, Phys. Rev. B 82, 081101(R) (2010).
     *
     *
     * If you are calculating the stress with vdW-DF, please also cite:
     *
     *   R. Sabatini, E. Kucukbenli, B. Kolb, T. Thonhauser, and
     *   S. de Gironcoli, J. Phys.: Condens. Matter 24, 424209 (2012).
     *
     ************************************************************************

     Carrying out vdW-DF run using the following parameters:

     Nqs =      20    Nr_points =    1024   r_max =   100.000
     q_mesh =
               0.00001000     0.04494208     0.09755937     0.15916263
               0.23128650     0.31572767     0.41458969     0.53033537
               0.66584808     0.82450364     1.01025438     1.22772762
               1.48234092     1.78043706     2.12944203     2.53805004
               3.01644009     3.57652955     4.23227104     5.00000000

     Gradients computed in reciprocal space

     ************************************************************************


     Starting wfc are    6 randomized atomic wfcs +    2 random wfc

     total cpu time spent up to now is       26.0 secs

     per-process dynamical memory:   190.1 Mb

     Self-consistent Calculation

     iteration #  1     ecut=    50.00 Ry     beta=0.70
     Davidson diagonalization with overlap
     ethr =  1.00E-02,  avg # of iterations =  6.2

     negative rho (up, down):  5.948E-03 0.000E+00

     total cpu time spent up to now is       80.8 secs

     total energy              =     -34.47516442 Ry
     Harris-Foulkes estimate   =     -34.84560159 Ry
     estimated scf accuracy    <       0.49896945 Ry

     iteration #  2     ecut=    50.00 Ry     beta=0.70
     Davidson diagonalization with overlap
     ethr =  6.24E-03,  avg # of iterations =  3.0

     negative rho (up, down):  6.759E-03 0.000E+00

     total cpu time spent up to now is      121.7 secs

     total energy              =     -34.55244752 Ry
     Harris-Foulkes estimate   =     -34.84084989 Ry
     estimated scf accuracy    <       0.62090402 Ry

     iteration #  3     ecut=    50.00 Ry     beta=0.70
     Davidson diagonalization with overlap
     ethr =  6.24E-03,  avg # of iterations =  2.0

     negative rho (up, down):  8.339E-03 0.000E+00

     total cpu time spent up to now is      160.0 secs

     total energy              =     -34.68514508 Ry
     Harris-Foulkes estimate   =     -34.68957025 Ry
     estimated scf accuracy    <       0.00838689 Ry

     iteration #  4     ecut=    50.00 Ry     beta=0.70
     Davidson diagonalization with overlap
     c_bands:  1 eigenvalues not converged
     ethr =  1.05E-04,  avg # of iterations = 14.1

     negative rho (up, down):  8.437E-03 0.000E+00

     total cpu time spent up to now is      231.5 secs

     total energy              =     -34.68490848 Ry
     Harris-Foulkes estimate   =     -34.68569016 Ry
     estimated scf accuracy    <       0.00188943 Ry

     iteration #  5     ecut=    50.00 Ry     beta=0.70
     Davidson diagonalization with overlap
     ethr =  2.36E-05,  avg # of iterations =  5.8

     negative rho (up, down):  8.621E-03 0.000E+00

     total cpu time spent up to now is      274.8 secs

     total energy              =     -34.68494214 Ry
     Harris-Foulkes estimate   =     -34.68503258 Ry
     estimated scf accuracy    <       0.00020832 Ry

     iteration #  6     ecut=    50.00 Ry     beta=0.70
     Davidson diagonalization with overlap
     c_bands:  1 eigenvalues not converged
     ethr =  2.60E-06,  avg # of iterations =  7.6

     negative rho (up, down):  8.741E-03 0.000E+00

     total cpu time spent up to now is      328.2 secs

     total energy              =     -34.68496636 Ry
     Harris-Foulkes estimate   =     -34.68496876 Ry
     estimated scf accuracy    <       0.00000495 Ry

     iteration #  7     ecut=    50.00 Ry     beta=0.70
     Davidson diagonalization with overlap
     ethr =  6.19E-08,  avg # of iterations =  2.6

     negative rho (up, down):  8.741E-03 0.000E+00

     total cpu time spent up to now is      368.5 secs

     total energy              =     -34.68496689 Ry
     Harris-Foulkes estimate   =     -34.68496704 Ry
     estimated scf accuracy    <       0.00000071 Ry

     iteration #  8     ecut=    50.00 Ry     beta=0.70
     Davidson diagonalization with overlap
     ethr =  8.93E-09,  avg # of iterations =  2.0

     negative rho (up, down):  8.751E-03 0.000E+00

     total cpu time spent up to now is      405.1 secs

     End of self-consistent calculation

          k = 0.2500 0.4330 0.1111 (136853 PWs)   bands (ev):

   -25.4433 -13.2587  -9.4588  -7.4379  -1.4174  -0.3748  -0.0850  -0.0083

          k = 0.2500-0.1443 0.1111 (136898 PWs)   bands (ev):

   -25.4433 -13.2587  -9.4588  -7.4379  -1.4442  -0.2999  -0.1697  -0.0489

          k =-0.2500-0.4330 0.1111 (136853 PWs)   bands (ev):

   -25.4433 -13.2587  -9.4588  -7.4379  -1.4174  -0.3748  -0.0854  -0.0072

          k =-0.2500 0.4330-0.1111 (136853 PWs)   bands (ev):

   -25.4433 -13.2587  -9.4588  -7.4379  -1.4224  -0.2446  -0.1873  -0.0595

          k = 0.2500-0.4330-0.1111 (136853 PWs)   bands (ev):

   -25.4433 -13.2587  -9.4588  -7.4379  -1.4224  -0.2449  -0.1871  -0.0601

          k = 0.5000 0.0000 0.1111 (136853 PWs)   bands (ev):

   -25.4433 -13.2587  -9.4588  -7.4379  -1.4195  -0.3416  -0.0994  -0.0328

          k =-0.5000 0.0000 0.1111 (136853 PWs)   bands (ev):

   -25.4433 -13.2587  -9.4588  -7.4379  -1.4195  -0.3415  -0.0999  -0.0326

          k =-0.2500 0.1443 0.1111 (136898 PWs)   bands (ev):

   -25.4433 -13.2587  -9.4588  -7.4379  -1.4442  -0.2997  -0.1713  -0.0448

          k =-0.2500-0.1443-0.1111 (136898 PWs)   bands (ev):

   -25.4433 -13.2587  -9.4588  -7.4379  -1.4396  -0.3404  -0.2234  -0.0649

          k = 0.2500 0.1443-0.1111 (136898 PWs)   bands (ev):

   -25.4433 -13.2587  -9.4588  -7.4379  -1.4396  -0.3401  -0.2248  -0.0623

          k = 0.0000-0.2887 0.1111 (136898 PWs)   bands (ev):

   -25.4433 -13.2587  -9.4588  -7.4379  -1.4422  -0.3127  -0.2015  -0.0594

          k = 0.0000 0.2887 0.1111 (136898 PWs)   bands (ev):

   -25.4433 -13.2587  -9.4588  -7.4379  -1.4423  -0.3130  -0.1997  -0.0624

     the Fermi energy is    -7.1872 ev

!    total energy              =     -34.68496692 Ry
     Harris-Foulkes estimate   =     -34.68496698 Ry
     estimated scf accuracy    <          7.9E-09 Ry

     The total energy is the sum of the following terms:

     one-electron contribution =     -74.07066533 Ry
     hartree contribution      =      38.51215535 Ry
     xc contribution           =      -8.66799434 Ry
     ewald contribution        =       9.53827544 Ry
     smearing contrib. (-TS)   =       0.00326198 Ry

     convergence has been achieved in   8 iterations

     Writing output data file 111warerref.save

     init_run     :     24.22s CPU     25.58s WALL (       1 calls)
     electrons    :    322.10s CPU    392.77s WALL (       1 calls)

     Called by init_run:
     wfcinit      :      6.59s CPU      6.86s WALL (       1 calls)
     potinit      :     12.62s CPU     13.28s WALL (       1 calls)

     Called by electrons:
     c_bands      :    181.78s CPU    215.42s WALL (       8 calls)
     sum_band     :     42.41s CPU     48.34s WALL (       8 calls)
     v_of_rho     :     94.41s CPU    110.68s WALL (       9 calls)
     newd         :     10.99s CPU     12.29s WALL (       9 calls)
     mix_rho      :      2.90s CPU      3.32s WALL (       8 calls)
     vdW_energy   :     14.41s CPU     16.42s WALL (       9 calls)
     vdW_ffts     :     38.00s CPU     46.79s WALL (      18 calls)
     vdW_v        :     16.49s CPU     17.89s WALL (       9 calls)

     Called by c_bands:
     init_us_2    :      1.77s CPU      1.83s WALL (     204 calls)
     cegterg      :    179.58s CPU    212.50s WALL (      96 calls)

     Called by *egterg:
     h_psi        :    168.12s CPU    197.16s WALL (     626 calls)
     s_psi        :      1.59s CPU      1.65s WALL (     626 calls)
     g_psi        :      0.39s CPU      0.42s WALL (     518 calls)
     cdiaghg      :      0.17s CPU      0.33s WALL (     614 calls)

     Called by h_psi:
     add_vuspsi   :      1.62s CPU      1.71s WALL (     626 calls)

     General routines
     calbec       :      2.71s CPU      4.00s WALL (     722 calls)
     fft          :     62.92s CPU     76.05s WALL (     589 calls)
     ffts         :      0.64s CPU      0.84s WALL (      17 calls)
     fftw         :    134.37s CPU    163.86s WALL (    6248 calls)
     interpolate  :      3.00s CPU      3.39s WALL (      17 calls)
     davcio       :      0.01s CPU      0.88s WALL (      12 calls)

     Parallel routines
     fft_scatter  :    104.76s CPU    141.46s WALL (    6854 calls)

     PWSCF        :  5m47.20s CPU     7m11.11s WALL


   This run was terminated on:  15:14:24  16Jun2015            

=------------------------------------------------------------------------------=
   JOB DONE.
=------------------------------------------------------------------------------=
