
     Program PWSCF v.5.1.2 starts on  9Aug2015 at 17:27:29 

     This program is part of the open-source Quantum ESPRESSO suite
     for quantum simulation of materials; please cite
         "P. Giannozzi et al., J. Phys.:Condens. Matter 21 395502 (2009);
          URL http://www.quantum-espresso.org", 
     in publications or presentations arising from this work. More details at
     http://www.quantum-espresso.org/quote

     Parallel version (MPI), running on    32 processors
     R & G space division:  proc/nbgrp/npool/nimage =      32
     Reading input from bridge.O1.Au6165.d.2.5.phi.0.psi.0.in
Warning: card &IONS ignored
Warning: card / ignored
Warning: card &CELL ignored
Warning: card / ignored

     Current dimensions of program PWSCF are:
     Max number of different atomic species (ntypx) = 10
     Max number of k-points (npk) =  40000
     Max angular momentum in pseudopotentials (lmaxx) =  3

     Subspace diagonalization in iterative solution of the eigenvalue problem:
     a serial algorithm will be used


     Parallelization info
     --------------------
     sticks:   dense  smooth     PW     G-vecs:    dense   smooth      PW
     Min         578     289     74               118518    41891    5486
     Max         579     290     75               118533    41932    5497
     Sum       18505    9265   2385              3792731  1341081  175711


     Title: 
     bridge.O1.Au6165.d.2.5.phi.0.psi.0                                         


     bravais-lattice index     =            8
     lattice parameter (alat)  =      24.1233  a.u.
     unit-cell volume          =   28076.2361 (a.u.)^3
     number of atoms/cell      =           75
     number of atomic types    =            3
     number of electrons       =       800.00
     number of Kohn-Sham states=          480
     kinetic-energy cutoff     =      50.0000  Ry
     charge density cutoff     =     400.0000  Ry
     convergence threshold     =      1.0E-08
     mixing beta               =       0.7000
     number of iterations used =            8  plain     mixing
     Exchange-correlation      =  SLA  PW   PBE  PBE ( 1  4  3  4 0 0)

     celldm(1)=  24.123277  celldm(2)=   1.000000  celldm(3)=   2.000000
     celldm(4)=   0.000000  celldm(5)=   0.000000  celldm(6)=   0.000000

     crystal axes: (cart. coord. in units of alat)
               a(1) = (   1.000000   0.000000   0.000000 )  
               a(2) = (   0.000000   1.000000   0.000000 )  
               a(3) = (   0.000000   0.000000   2.000000 )  

     reciprocal axes: (cart. coord. in units 2 pi/alat)
               b(1) = (  1.000000  0.000000  0.000000 )  
               b(2) = (  0.000000  1.000000  0.000000 )  
               b(3) = (  0.000000  0.000000  0.500000 )  


     PseudoPot. # 1 for Au read from file:
     /home/scc/andrejb/qe/pseudo/Au.pbe-nd-van.UPF
     MD5 check sum: 458681b50f36d87ef23c61b04bba420a
     Pseudo is Ultrasoft + core correction, Zval = 11.0
     Generated by new atomic code, or converted to UPF format
     Using radial grid of  985 points,  3 beta functions with: 
                l(1) =   1
                l(2) =   2
                l(3) =   2
     Q(r) pseudized with  8 coefficients,  rinner =    1.100   1.100   1.100
                                                       1.100   1.100

     PseudoPot. # 2 for H  read from file:
     /home/scc/andrejb/qe/pseudo/H.pbe-van_ak.UPF
     MD5 check sum: 403db7282739603aa925980fa9b8608d
     Pseudo is Ultrasoft, Zval =  1.0
     Generated by new atomic code, or converted to UPF format
     Using radial grid of  615 points,  1 beta functions with: 
                l(1) =   0
     Q(r) pseudized with  8 coefficients,  rinner =    0.800

     PseudoPot. # 3 for O  read from file:
     /home/scc/andrejb/qe/pseudo/O.pbe-van_ak.UPF
     MD5 check sum: 4b8c549914a63cae506c6ff22b5af4fe
     Pseudo is Ultrasoft, Zval =  6.0
     Generated by new atomic code, or converted to UPF format
     Using radial grid of  737 points,  4 beta functions with: 
                l(1) =   0
                l(2) =   0
                l(3) =   1
                l(4) =   1
     Q(r) pseudized with  8 coefficients,  rinner =    0.800   0.800   0.800


     atomic species   valence    mass     pseudopotential
        Au            11.00   196.96657     Au( 1.00)
        H              1.00     1.01000     H ( 1.00)
        O              6.00    16.00000     O ( 1.00)

     No symmetry found



   Cartesian axes

     site n.     atom                  positions (alat units)
         1           O   tau(   1) = (   0.2499161   0.4165269   0.6951590  )
         2           H   tau(   2) = (   0.2028385   0.3773554   0.7406529  )
         3           H   tau(   3) = (   0.2955663   0.4545286   0.7430167  )
         4           Au  tau(   4) = (   0.0000000   0.0000000   0.0000000  )
         5           Au  tau(   5) = (   0.3332217   0.0000000   0.0000000  )
         6           Au  tau(   6) = (   0.6664434   0.0000000   0.0000000  )
         7           Au  tau(   7) = (   0.1666109   0.1666109   0.0000000  )
         8           Au  tau(   8) = (   0.4998326   0.1666109   0.0000000  )
         9           Au  tau(   9) = (   0.8330542   0.1666109   0.0000000  )
        10           Au  tau(  10) = (   0.0000000   0.3332217   0.0000000  )
        11           Au  tau(  11) = (   0.3332217   0.3332217   0.0000000  )
        12           Au  tau(  12) = (   0.6664434   0.3332217   0.0000000  )
        13           Au  tau(  13) = (   0.1666109   0.4998326   0.0000000  )
        14           Au  tau(  14) = (   0.4998326   0.4998326   0.0000000  )
        15           Au  tau(  15) = (   0.8330542   0.4998326   0.0000000  )
        16           Au  tau(  16) = (   0.0000000   0.6664434   0.0000000  )
        17           Au  tau(  17) = (   0.3332217   0.6664434   0.0000000  )
        18           Au  tau(  18) = (   0.6664434   0.6664434   0.0000000  )
        19           Au  tau(  19) = (   0.1666109   0.8330542   0.0000000  )
        20           Au  tau(  20) = (   0.4998326   0.8330542   0.0000000  )
        21           Au  tau(  21) = (   0.8330542   0.8330542   0.0000000  )
        22           Au  tau(  22) = (   0.1666109   0.0000000   0.1666109  )
        23           Au  tau(  23) = (   0.4998326   0.0000000   0.1666109  )
        24           Au  tau(  24) = (   0.8330542   0.0000000   0.1666109  )
        25           Au  tau(  25) = (   0.0000000   0.1666109   0.1666109  )
        26           Au  tau(  26) = (   0.3332217   0.1666109   0.1666109  )
        27           Au  tau(  27) = (   0.6664434   0.1666109   0.1666109  )
        28           Au  tau(  28) = (   0.1666109   0.3332217   0.1666109  )
        29           Au  tau(  29) = (   0.4998326   0.3332217   0.1666109  )
        30           Au  tau(  30) = (   0.8330542   0.3332217   0.1666109  )
        31           Au  tau(  31) = (   0.0000000   0.4998326   0.1666109  )
        32           Au  tau(  32) = (   0.3332217   0.4998326   0.1666109  )
        33           Au  tau(  33) = (   0.6664434   0.4998326   0.1666109  )
        34           Au  tau(  34) = (   0.1666109   0.6664434   0.1666109  )
        35           Au  tau(  35) = (   0.4998326   0.6664434   0.1666109  )
        36           Au  tau(  36) = (   0.8330542   0.6664434   0.1666109  )
        37           Au  tau(  37) = (   0.0000000   0.8330542   0.1666109  )
        38           Au  tau(  38) = (   0.3332217   0.8330542   0.1666109  )
        39           Au  tau(  39) = (   0.6664434   0.8330542   0.1666109  )
        40           Au  tau(  40) = (  -0.0000182  -0.0000182   0.3335478  )
        41           Au  tau(  41) = (   0.3332215  -0.0000181   0.3335473  )
        42           Au  tau(  42) = (   0.6664447  -0.0000183   0.3335481  )
        43           Au  tau(  43) = (  -0.0000181   0.3332215   0.3335473  )
        44           Au  tau(  44) = (   0.3332215   0.3332215   0.3335468  )
        45           Au  tau(  45) = (   0.6664445   0.3332215   0.3335477  )
        46           Au  tau(  46) = (  -0.0000183   0.6664447   0.3335481  )
        47           Au  tau(  47) = (   0.3332215   0.6664445   0.3335477  )
        48           Au  tau(  48) = (   0.6664446   0.6664446   0.3335486  )
        49           Au  tau(  49) = (   0.1666097   0.1666097   0.3335483  )
        50           Au  tau(  50) = (   0.4998320   0.1666098   0.3335477  )
        51           Au  tau(  51) = (   0.8330732   0.1666096   0.3335480  )
        52           Au  tau(  52) = (   0.1666098   0.4998320   0.3335477  )
        53           Au  tau(  53) = (   0.4998322   0.4998322   0.3335470  )
        54           Au  tau(  54) = (   0.8330731   0.4998322   0.3335474  )
        55           Au  tau(  55) = (   0.1666096   0.8330732   0.3335480  )
        56           Au  tau(  56) = (   0.4998322   0.8330731   0.3335474  )
        57           Au  tau(  57) = (   0.8330731   0.8330731   0.3335478  )
        58           Au  tau(  58) = (   0.1666104  -0.0000111   0.4993095  )
        59           Au  tau(  59) = (   0.4998323  -0.0000112   0.4993099  )
        60           Au  tau(  60) = (   0.8330660  -0.0000111   0.4993009  )
        61           Au  tau(  61) = (  -0.0000111   0.1666104   0.4993095  )
        62           Au  tau(  62) = (   0.3332213   0.1666106   0.4993185  )
        63           Au  tau(  63) = (   0.6664437   0.1666106   0.4993187  )
        64           Au  tau(  64) = (   0.1666106   0.3332213   0.4993185  )
        65           Au  tau(  65) = (   0.4998324   0.3332216   0.4993185  )
        66           Au  tau(  66) = (   0.8330658   0.3332215   0.4993102  )
        67           Au  tau(  67) = (  -0.0000112   0.4998323   0.4993099  )
        68           Au  tau(  68) = (   0.3332216   0.4998324   0.4993185  )
        69           Au  tau(  69) = (   0.6664437   0.4998325   0.4993187  )
        70           Au  tau(  70) = (   0.1666106   0.6664437   0.4993187  )
        71           Au  tau(  71) = (   0.4998325   0.6664437   0.4993187  )
        72           Au  tau(  72) = (   0.8330658   0.6664438   0.4993102  )
        73           Au  tau(  73) = (  -0.0000111   0.8330660   0.4993009  )
        74           Au  tau(  74) = (   0.3332215   0.8330658   0.4993102  )
        75           Au  tau(  75) = (   0.6664438   0.8330658   0.4993102  )

     number of k points=     6  Marzari-Vanderbilt smearing, width (Ry)=  0.0200
                       cart. coord. in units 2pi/alat
        k(    1) = (   0.2500000   0.2500000   0.0833333), wk =   0.3333333
        k(    2) = (   0.2500000   0.2500000  -0.2500000), wk =   0.3333333
        k(    3) = (  -0.2500000  -0.2500000   0.0833333), wk =   0.3333333
        k(    4) = (  -0.2500000   0.2500000  -0.0833333), wk =   0.3333333
        k(    5) = (   0.2500000  -0.2500000  -0.0833333), wk =   0.3333333
        k(    6) = (  -0.2500000   0.2500000   0.2500000), wk =   0.3333333

     Dense  grid:  3792731 G-vectors     FFT dimensions: ( 160, 160, 320)

     Smooth grid:  1341081 G-vectors     FFT dimensions: ( 120, 120, 225)

     Largest allocated arrays     est. size (Mb)     dimensions
        Kohn-Sham Wavefunctions        38.58 Mb     (    5267,  480)
        NL pseudopotentials            76.03 Mb     (    5267,  946)
        Each V/rho on FFT grid          3.91 Mb     (  256000)
        Each G-vector array             0.90 Mb     (  118520)
        G-vector shells                 0.08 Mb     (   10286)
     Largest temporary arrays     est. size (Mb)     dimensions
        Auxiliary wavefunctions       154.31 Mb     (    5267, 1920)
        Each subspace H/S matrix       56.25 Mb     (    1920, 1920)
        Each <psi_i|beta_j> matrix      6.93 Mb     (     946,  480)
        Arrays for rho mixing          31.25 Mb     (  256000,    8)

     Initial potential from superposition of free atoms
     Check: negative starting charge=   -1.945143

     starting charge  799.16392, renormalised to  800.00000

     negative rho (up, down):  1.947E+00 0.000E+00
     Starting wfc are  654 randomized atomic wfcs

     total cpu time spent up to now is       98.2 secs

     Self-consistent Calculation

     iteration #  1     ecut=    50.00 Ry     beta=0.70
     Davidson diagonalization with overlap
     ethr =  1.00E-02,  avg # of iterations =  3.0

     Threshold (ethr) on eigenvalues was too large:
     Diagonalizing with lowered threshold

     Davidson diagonalization with overlap
     ethr =  5.01E-04,  avg # of iterations =  2.0

     negative rho (up, down):  1.932E+00 0.000E+00

     total cpu time spent up to now is      440.6 secs

     total energy              =   -7377.38648020 Ry
     Harris-Foulkes estimate   =   -7380.95955159 Ry
     estimated scf accuracy    <       4.53567309 Ry

     iteration #  2     ecut=    50.00 Ry     beta=0.70
     Davidson diagonalization with overlap
     ethr =  5.67E-04,  avg # of iterations = 11.3

     negative rho (up, down):  1.929E+00 0.000E+00

     total cpu time spent up to now is      993.4 secs

     total energy              =   -7368.33226263 Ry
     Harris-Foulkes estimate   =   -7388.10801403 Ry
     estimated scf accuracy    <     103.34903994 Ry

     iteration #  3     ecut=    50.00 Ry     beta=0.70
     Davidson diagonalization with overlap
     ethr =  5.67E-04,  avg # of iterations =  6.0

     negative rho (up, down):  1.947E+00 0.000E+00

     total cpu time spent up to now is     1352.9 secs

     total energy              =   -7379.06600014 Ry
     Harris-Foulkes estimate   =   -7380.65629988 Ry
     estimated scf accuracy    <       5.79135198 Ry

     iteration #  4     ecut=    50.00 Ry     beta=0.70
     Davidson diagonalization with overlap
     ethr =  5.67E-04,  avg # of iterations =  5.8

     negative rho (up, down):  1.951E+00 0.000E+00

     total cpu time spent up to now is     1571.8 secs

     total energy              =   -7379.28891758 Ry
     Harris-Foulkes estimate   =   -7380.52489604 Ry
     estimated scf accuracy    <       9.52240632 Ry

     iteration #  5     ecut=    50.00 Ry     beta=0.70
     Davidson diagonalization with overlap
     ethr =  5.67E-04,  avg # of iterations =  4.5

     negative rho (up, down):  1.961E+00 0.000E+00

     total cpu time spent up to now is     1763.2 secs

     total energy              =   -7379.89367641 Ry
     Harris-Foulkes estimate   =   -7380.10086142 Ry
     estimated scf accuracy    <       1.18503833 Ry

     iteration #  6     ecut=    50.00 Ry     beta=0.70
     Davidson diagonalization with overlap
     ethr =  1.48E-04,  avg # of iterations =  5.0

     negative rho (up, down):  1.964E+00 0.000E+00

     total cpu time spent up to now is     1962.3 secs

     total energy              =   -7379.95765540 Ry
     Harris-Foulkes estimate   =   -7379.99553572 Ry
     estimated scf accuracy    <       0.12274815 Ry

     iteration #  7     ecut=    50.00 Ry     beta=0.70
     Davidson diagonalization with overlap
     ethr =  1.53E-05,  avg # of iterations = 15.2

     negative rho (up, down):  1.967E+00 0.000E+00

     total cpu time spent up to now is     2289.7 secs

     total energy              =   -7379.96313176 Ry
     Harris-Foulkes estimate   =   -7379.98939246 Ry
     estimated scf accuracy    <       0.10834423 Ry

     iteration #  8     ecut=    50.00 Ry     beta=0.70
     Davidson diagonalization with overlap
     ethr =  1.35E-05,  avg # of iterations =  3.3

     negative rho (up, down):  1.968E+00 0.000E+00

     total cpu time spent up to now is     2479.6 secs

     total energy              =   -7379.96402172 Ry
     Harris-Foulkes estimate   =   -7379.98600624 Ry
     estimated scf accuracy    <       0.09863653 Ry

     iteration #  9     ecut=    50.00 Ry     beta=0.70
     Davidson diagonalization with overlap
     ethr =  1.23E-05,  avg # of iterations =  4.3

     negative rho (up, down):  1.969E+00 0.000E+00

     total cpu time spent up to now is     2666.7 secs

     total energy              =   -7379.97189951 Ry
     Harris-Foulkes estimate   =   -7379.97895611 Ry
     estimated scf accuracy    <       0.02603465 Ry

     iteration # 10     ecut=    50.00 Ry     beta=0.70
     Davidson diagonalization with overlap
     ethr =  3.25E-06,  avg # of iterations =  8.7

     negative rho (up, down):  1.970E+00 0.000E+00

     total cpu time spent up to now is     2902.8 secs

     total energy              =   -7379.97523756 Ry
     Harris-Foulkes estimate   =   -7379.97694720 Ry
     estimated scf accuracy    <       0.00517587 Ry

     iteration # 11     ecut=    50.00 Ry     beta=0.70
     Davidson diagonalization with overlap
     ethr =  6.47E-07,  avg # of iterations =  2.2

     negative rho (up, down):  1.970E+00 0.000E+00

     total cpu time spent up to now is     3074.7 secs

     total energy              =   -7379.97592620 Ry
     Harris-Foulkes estimate   =   -7379.97640746 Ry
     estimated scf accuracy    <       0.00122183 Ry

     iteration # 12     ecut=    50.00 Ry     beta=0.70
     Davidson diagonalization with overlap
     ethr =  1.53E-07,  avg # of iterations =  2.0

     negative rho (up, down):  1.970E+00 0.000E+00

     total cpu time spent up to now is     3264.1 secs

     total energy              =   -7379.97609636 Ry
     Harris-Foulkes estimate   =   -7379.97624844 Ry
     estimated scf accuracy    <       0.00052016 Ry

     iteration # 13     ecut=    50.00 Ry     beta=0.70
     Davidson diagonalization with overlap
     ethr =  6.50E-08,  avg # of iterations =  2.0

     negative rho (up, down):  1.970E+00 0.000E+00

     total cpu time spent up to now is     3436.8 secs

     total energy              =   -7379.97613940 Ry
     Harris-Foulkes estimate   =   -7379.97623525 Ry
     estimated scf accuracy    <       0.00048194 Ry

     iteration # 14     ecut=    50.00 Ry     beta=0.70
     Davidson diagonalization with overlap
     ethr =  6.02E-08,  avg # of iterations =  2.0

     negative rho (up, down):  1.970E+00 0.000E+00

     total cpu time spent up to now is     3614.6 secs

     total energy              =   -7379.97618137 Ry
     Harris-Foulkes estimate   =   -7379.97620062 Ry
     estimated scf accuracy    <       0.00006114 Ry

     iteration # 15     ecut=    50.00 Ry     beta=0.70
     Davidson diagonalization with overlap
     ethr =  7.64E-09,  avg # of iterations =  2.0

     negative rho (up, down):  1.970E+00 0.000E+00

     total cpu time spent up to now is     3794.1 secs

     total energy              =   -7379.97618071 Ry
     Harris-Foulkes estimate   =   -7379.97620184 Ry
     estimated scf accuracy    <       0.00009281 Ry

     iteration # 16     ecut=    50.00 Ry     beta=0.70
     Davidson diagonalization with overlap
     ethr =  7.64E-09,  avg # of iterations =  2.0

     negative rho (up, down):  1.970E+00 0.000E+00

     total cpu time spent up to now is     3965.7 secs

     total energy              =   -7379.97617737 Ry
     Harris-Foulkes estimate   =   -7379.97621083 Ry
     estimated scf accuracy    <       0.00027211 Ry

     iteration # 17     ecut=    50.00 Ry     beta=0.70
     Davidson diagonalization with overlap
     ethr =  7.64E-09,  avg # of iterations =  2.0

     negative rho (up, down):  1.970E+00 0.000E+00

     total cpu time spent up to now is     4131.1 secs

     total energy              =   -7379.97619247 Ry
     Harris-Foulkes estimate   =   -7379.97619465 Ry
     estimated scf accuracy    <       0.00000770 Ry

     iteration # 18     ecut=    50.00 Ry     beta=0.70
     Davidson diagonalization with overlap
     ethr =  9.63E-10,  avg # of iterations =  2.0

     negative rho (up, down):  1.970E+00 0.000E+00

     total cpu time spent up to now is     4310.0 secs

     total energy              =   -7379.97619335 Ry
     Harris-Foulkes estimate   =   -7379.97619419 Ry
     estimated scf accuracy    <       0.00000333 Ry

     iteration # 19     ecut=    50.00 Ry     beta=0.70
     Davidson diagonalization with overlap
     ethr =  4.17E-10,  avg # of iterations =  2.0

     negative rho (up, down):  1.970E+00 0.000E+00

     total cpu time spent up to now is     4472.0 secs

     total energy              =   -7379.97619351 Ry
     Harris-Foulkes estimate   =   -7379.97619419 Ry
     estimated scf accuracy    <       0.00000302 Ry

     iteration # 20     ecut=    50.00 Ry     beta=0.70
     Davidson diagonalization with overlap
     ethr =  3.77E-10,  avg # of iterations =  2.0

     negative rho (up, down):  1.970E+00 0.000E+00

     total cpu time spent up to now is     4638.8 secs

     total energy              =   -7379.97619379 Ry
     Harris-Foulkes estimate   =   -7379.97619397 Ry
     estimated scf accuracy    <       0.00000058 Ry

     iteration # 21     ecut=    50.00 Ry     beta=0.70
     Davidson diagonalization with overlap
     ethr =  7.20E-11,  avg # of iterations =  2.0

     negative rho (up, down):  1.970E+00 0.000E+00

     total cpu time spent up to now is     4806.2 secs

     total energy              =   -7379.97619386 Ry
     Harris-Foulkes estimate   =   -7379.97619390 Ry
     estimated scf accuracy    <       0.00000008 Ry

     iteration # 22     ecut=    50.00 Ry     beta=0.70
     Davidson diagonalization with overlap
     ethr =  1.05E-11,  avg # of iterations =  3.0

     negative rho (up, down):  1.970E+00 0.000E+00

     total cpu time spent up to now is     5015.2 secs

     total energy              =   -7379.97619387 Ry
     Harris-Foulkes estimate   =   -7379.97619389 Ry
     estimated scf accuracy    <       0.00000006 Ry

     iteration # 23     ecut=    50.00 Ry     beta=0.70
     Davidson diagonalization with overlap
     ethr =  7.72E-12,  avg # of iterations =  2.3

     negative rho (up, down):  1.970E+00 0.000E+00

     total cpu time spent up to now is     5197.9 secs

     total energy              =   -7379.97619387 Ry
     Harris-Foulkes estimate   =   -7379.97619389 Ry
     estimated scf accuracy    <       0.00000009 Ry

     iteration # 24     ecut=    50.00 Ry     beta=0.70
     Davidson diagonalization with overlap
     ethr =  7.72E-12,  avg # of iterations =  2.0

     negative rho (up, down):  1.970E+00 0.000E+00

     total cpu time spent up to now is     5378.6 secs

     total energy              =   -7379.97619387 Ry
     Harris-Foulkes estimate   =   -7379.97619388 Ry
     estimated scf accuracy    <       0.00000004 Ry

     iteration # 25     ecut=    50.00 Ry     beta=0.70
     Davidson diagonalization with overlap
     ethr =  4.90E-12,  avg # of iterations =  2.0

     negative rho (up, down):  1.970E+00 0.000E+00

     total cpu time spent up to now is     5553.5 secs

     End of self-consistent calculation

          k = 0.2500 0.2500 0.0833 (167653 PWs)   bands (ev):

   -19.9552  -7.7788  -6.7197  -6.1895  -6.1895  -5.7508  -5.3546  -5.2491
    -5.2487  -5.0289  -5.0264  -4.9507  -4.9312  -4.8008  -4.7890  -4.6790
    -4.6056  -4.5905  -4.5784  -4.5652  -4.4668  -4.3834  -4.3832  -4.3725
    -4.3553  -4.3520  -4.3476  -4.3442  -4.2956  -4.2922  -4.2910  -4.2781
    -4.2266  -4.1994  -4.1990  -4.1406  -4.1381  -4.1329  -4.1030  -4.0933
    -4.0877  -4.0833  -4.0646  -4.0639  -4.0256  -3.9954  -3.9945  -3.9914
    -3.9896  -3.9864  -3.9599  -3.9295  -3.9142  -3.8995  -3.8981  -3.8948
    -3.8945  -3.8912  -3.8868  -3.8563  -3.8393  -3.7952  -3.7939  -3.7611
    -3.7306  -3.7292  -3.7254  -3.7173  -3.7024  -3.7013  -3.6898  -3.6406
    -3.6400  -3.6352  -3.6335  -3.5503  -3.5460  -3.5278  -3.5192  -3.4928
    -3.4921  -3.4766  -3.4515  -3.4500  -3.4072  -3.4055  -3.4047  -3.4022
    -3.3804  -3.3793  -3.3004  -3.2988  -3.2973  -3.2824  -3.2692  -3.2630
    -3.2520  -3.2516  -3.2455  -3.2424  -3.2027  -3.2003  -3.1807  -3.1768
    -3.1446  -3.1412  -3.1160  -3.0965  -3.0951  -3.0491  -3.0488  -3.0148
    -2.9888  -2.9877  -2.9869  -2.9845  -2.9829  -2.9799  -2.9585  -2.9459
    -2.9081  -2.9077  -2.8870  -2.8625  -2.8600  -2.8599  -2.8544  -2.8534
    -2.8496  -2.8491  -2.8139  -2.8137  -2.8119  -2.8089  -2.8055  -2.8020
    -2.7479  -2.7422  -2.7378  -2.7365  -2.7163  -2.7148  -2.7095  -2.6202
    -2.6113  -2.6110  -2.6015  -2.5992  -2.5955  -2.5949  -2.5928  -2.5845
    -2.5845  -2.5745  -2.5663  -2.5656  -2.5616  -2.5585  -2.5479  -2.5472
    -2.5412  -2.5194  -2.5094  -2.5054  -2.4931  -2.4929  -2.4779  -2.4754
    -2.4672  -2.4660  -2.4457  -2.4390  -2.4334  -2.4323  -2.4278  -2.3944
    -2.3924  -2.3877  -2.3339  -2.3300  -2.3174  -2.3160  -2.3098  -2.3015
    -2.2792  -2.2780  -2.2729  -2.2656  -2.2598  -2.2500  -2.2448  -2.2335
    -2.2325  -2.2054  -2.2031  -2.1959  -2.1952  -2.1872  -2.1849  -2.1664
    -2.1533  -2.1305  -2.0735  -2.0629  -2.0519  -2.0436  -2.0410  -2.0283
    -2.0067  -1.9795  -1.9785  -1.9617  -1.9472  -1.9358  -1.9275  -1.9148
    -1.8975  -1.8926  -1.8838  -1.8791  -1.8481  -1.8470  -1.8417  -1.8356
    -1.8352  -1.8300  -1.8183  -1.8117  -1.8011  -1.7928  -1.7924  -1.7920
    -1.7915  -1.7872  -1.7859  -1.7755  -1.7554  -1.7542  -1.7480  -1.7419
    -1.7346  -1.7323  -1.7294  -1.7258  -1.7234  -1.7208  -1.6870  -1.6830
    -1.6427  -1.6248  -1.6240  -1.5789  -1.5779  -1.5776  -1.5668  -1.5662
    -1.5545  -1.5485  -1.5417  -1.5377  -1.5359  -1.5175  -1.5155  -1.5135
    -1.4775  -1.4767  -1.4594  -1.4389  -1.4370  -1.3984  -1.3962  -1.3474
    -1.3470  -1.3265  -1.3040  -1.3005  -1.2999  -1.2947  -1.2924  -1.2768
    -1.2748  -1.2742  -1.2740  -1.2733  -1.2726  -1.2712  -1.2624  -1.2564
    -1.2394  -1.2384  -1.2085  -1.2075  -1.2062  -1.1854  -1.1849  -1.1806
    -1.1801  -1.1770  -1.1612  -1.1370  -1.1361  -1.1148  -1.1131  -1.1010
    -1.0926  -1.0814  -1.0806  -1.0520  -1.0518  -1.0449  -1.0401  -1.0055
    -1.0027  -0.9951  -0.9944  -0.9928  -0.9901  -0.9670  -0.9667  -0.9530
    -0.9454  -0.9453  -0.9344  -0.9333  -0.9316  -0.9277  -0.9212  -0.9093
    -0.9075  -0.9019  -0.9019  -0.8967  -0.8904  -0.8852  -0.8757  -0.8333
    -0.8322  -0.8304  -0.8293  -0.8258  -0.8247  -0.7952  -0.7910  -0.7830
    -0.7653  -0.7603  -0.7562  -0.7544  -0.7477  -0.7389  -0.7350  -0.7043
    -0.7024  -0.6915  -0.6907  -0.6712  -0.6711  -0.6558  -0.6322  -0.6240
    -0.6064  -0.6061  -0.5681  -0.5678  -0.5657  -0.5637  -0.5626  -0.5572
    -0.5569  -0.5555  -0.5510  -0.5502  -0.5174  -0.5169  -0.5165  -0.5161
    -0.5142  -0.5040  -0.5003  -0.4905  -0.4719  -0.2121  -0.2021  -0.1603
    -0.1448  -0.1252  -0.0621   0.0844   0.0870   0.1219   0.3994   0.4063
     0.7372   0.7476   0.7842   0.7888   0.8331   0.8414   0.9930   1.0069
     1.1228   1.1254   1.2408   1.7341   1.7759   1.7801   1.8172   1.8173
     1.9441   1.9612   2.0074   2.0190   2.1907   2.1968   2.4721   2.4995
     2.5106   2.5290   2.9520   2.9610   2.9828   2.9863   3.0002   3.0047
     3.0662   3.0687   3.2023   3.3383   3.3493   3.5305   3.5395   3.6403
     3.7098   3.7140   4.0087   4.0149   4.0626   4.0710   4.0720   4.1734
     4.2156   4.2193   4.2251   4.5137   4.5155   4.5450   4.5514   4.6641
     4.6673   4.7229   4.7304   4.9394   5.1830   5.6081   5.6134   5.6627
     5.6825   5.7985   5.8185   5.8307   5.8911   5.8922   5.9099   5.9163
     5.9376   6.0211   6.0388   6.1265   6.2712   6.3055   6.3060   6.3196
     6.3232   6.3324   6.3362   6.3602   6.3726   6.4644   6.4902   6.5900

          k = 0.2500 0.2500-0.2500 (167588 PWs)   bands (ev):

   -19.9552  -7.7788  -6.7197  -6.1895  -6.1895  -5.7508  -5.3546  -5.2491
    -5.2487  -5.0289  -5.0264  -4.9507  -4.9312  -4.8008  -4.7890  -4.6790
    -4.6056  -4.5905  -4.5784  -4.5652  -4.4668  -4.3834  -4.3832  -4.3725
    -4.3553  -4.3520  -4.3476  -4.3442  -4.2956  -4.2922  -4.2910  -4.2781
    -4.2266  -4.1994  -4.1990  -4.1406  -4.1381  -4.1329  -4.1030  -4.0933
    -4.0877  -4.0833  -4.0646  -4.0640  -4.0256  -3.9954  -3.9945  -3.9914
    -3.9896  -3.9864  -3.9599  -3.9294  -3.9142  -3.8995  -3.8981  -3.8948
    -3.8945  -3.8912  -3.8868  -3.8563  -3.8393  -3.7952  -3.7939  -3.7611
    -3.7306  -3.7292  -3.7254  -3.7173  -3.7024  -3.7013  -3.6898  -3.6406
    -3.6400  -3.6352  -3.6335  -3.5503  -3.5460  -3.5278  -3.5192  -3.4928
    -3.4921  -3.4766  -3.4515  -3.4500  -3.4072  -3.4055  -3.4047  -3.4022
    -3.3804  -3.3793  -3.3004  -3.2988  -3.2973  -3.2824  -3.2692  -3.2630
    -3.2520  -3.2516  -3.2455  -3.2424  -3.2027  -3.2003  -3.1807  -3.1768
    -3.1446  -3.1412  -3.1160  -3.0965  -3.0951  -3.0491  -3.0488  -3.0148
    -2.9888  -2.9877  -2.9869  -2.9845  -2.9829  -2.9799  -2.9585  -2.9459
    -2.9081  -2.9077  -2.8870  -2.8625  -2.8600  -2.8599  -2.8544  -2.8534
    -2.8496  -2.8491  -2.8139  -2.8137  -2.8119  -2.8089  -2.8055  -2.8020
    -2.7479  -2.7422  -2.7378  -2.7365  -2.7163  -2.7148  -2.7095  -2.6202
    -2.6113  -2.6110  -2.6015  -2.5992  -2.5955  -2.5949  -2.5928  -2.5845
    -2.5845  -2.5745  -2.5663  -2.5656  -2.5616  -2.5585  -2.5479  -2.5472
    -2.5412  -2.5194  -2.5094  -2.5054  -2.4931  -2.4928  -2.4779  -2.4754
    -2.4672  -2.4660  -2.4457  -2.4390  -2.4334  -2.4323  -2.4278  -2.3944
    -2.3924  -2.3877  -2.3339  -2.3300  -2.3174  -2.3160  -2.3098  -2.3015
    -2.2792  -2.2780  -2.2729  -2.2656  -2.2598  -2.2500  -2.2448  -2.2335
    -2.2325  -2.2054  -2.2031  -2.1959  -2.1952  -2.1872  -2.1849  -2.1664
    -2.1533  -2.1305  -2.0735  -2.0629  -2.0519  -2.0436  -2.0410  -2.0283
    -2.0067  -1.9795  -1.9785  -1.9617  -1.9472  -1.9358  -1.9275  -1.9148
    -1.8975  -1.8926  -1.8838  -1.8791  -1.8481  -1.8469  -1.8417  -1.8356
    -1.8352  -1.8300  -1.8183  -1.8118  -1.8011  -1.7928  -1.7924  -1.7920
    -1.7915  -1.7872  -1.7859  -1.7755  -1.7554  -1.7542  -1.7480  -1.7419
    -1.7346  -1.7323  -1.7294  -1.7258  -1.7234  -1.7208  -1.6869  -1.6830
    -1.6427  -1.6248  -1.6240  -1.5789  -1.5779  -1.5776  -1.5668  -1.5662
    -1.5544  -1.5485  -1.5417  -1.5377  -1.5359  -1.5175  -1.5155  -1.5135
    -1.4775  -1.4767  -1.4594  -1.4389  -1.4370  -1.3984  -1.3962  -1.3474
    -1.3470  -1.3266  -1.3040  -1.3005  -1.2999  -1.2947  -1.2924  -1.2768
    -1.2748  -1.2742  -1.2740  -1.2733  -1.2726  -1.2712  -1.2624  -1.2564
    -1.2394  -1.2384  -1.2085  -1.2075  -1.2062  -1.1854  -1.1849  -1.1806
    -1.1801  -1.1770  -1.1612  -1.1370  -1.1361  -1.1148  -1.1131  -1.1010
    -1.0926  -1.0814  -1.0806  -1.0520  -1.0518  -1.0449  -1.0401  -1.0055
    -1.0027  -0.9951  -0.9944  -0.9928  -0.9901  -0.9670  -0.9667  -0.9530
    -0.9454  -0.9453  -0.9344  -0.9333  -0.9316  -0.9277  -0.9212  -0.9093
    -0.9075  -0.9019  -0.9019  -0.8967  -0.8904  -0.8852  -0.8757  -0.8333
    -0.8322  -0.8304  -0.8293  -0.8258  -0.8247  -0.7952  -0.7909  -0.7830
    -0.7653  -0.7603  -0.7562  -0.7544  -0.7477  -0.7389  -0.7350  -0.7043
    -0.7024  -0.6915  -0.6907  -0.6712  -0.6711  -0.6558  -0.6322  -0.6240
    -0.6064  -0.6061  -0.5681  -0.5678  -0.5657  -0.5637  -0.5626  -0.5572
    -0.5569  -0.5555  -0.5510  -0.5502  -0.5174  -0.5169  -0.5165  -0.5161
    -0.5141  -0.5040  -0.5003  -0.4905  -0.4718  -0.2121  -0.2021  -0.1603
    -0.1447  -0.1252  -0.0621   0.0844   0.0870   0.1219   0.3994   0.4063
     0.7372   0.7476   0.7842   0.7888   0.8331   0.8414   0.9930   1.0069
     1.1228   1.1254   1.2408   1.7341   1.7760   1.7801   1.8172   1.8173
     1.9441   1.9612   2.0074   2.0190   2.1907   2.1968   2.4721   2.4995
     2.5106   2.5290   2.9520   2.9610   2.9828   2.9863   3.0002   3.0047
     3.0662   3.0687   3.2023   3.3383   3.3493   3.5305   3.5395   3.6403
     3.7098   3.7140   4.0087   4.0149   4.0626   4.0710   4.0720   4.1735
     4.2156   4.2194   4.2251   4.5137   4.5155   4.5450   4.5514   4.6641
     4.6673   4.7229   4.7304   4.9394   5.1800   5.6081   5.6129   5.6630
     5.6765   5.7773   5.8185   5.8304   5.8911   5.8931   5.9099   5.9166
     5.9845   6.0286   6.0767   6.0866   6.2520   6.3052   6.3060   6.3194
     6.3213   6.3245   6.3363   6.4099   6.4478   6.4653   6.5209   6.5840

          k =-0.2500-0.2500 0.0833 (167653 PWs)   bands (ev):

   -19.9552  -7.7788  -6.7197  -6.1895  -6.1895  -5.7508  -5.3546  -5.2491
    -5.2487  -5.0289  -5.0264  -4.9507  -4.9312  -4.8008  -4.7890  -4.6790
    -4.6056  -4.5905  -4.5784  -4.5652  -4.4668  -4.3834  -4.3832  -4.3725
    -4.3553  -4.3520  -4.3476  -4.3442  -4.2956  -4.2922  -4.2910  -4.2781
    -4.2266  -4.1994  -4.1990  -4.1406  -4.1381  -4.1329  -4.1030  -4.0933
    -4.0877  -4.0833  -4.0646  -4.0639  -4.0256  -3.9954  -3.9945  -3.9914
    -3.9896  -3.9864  -3.9599  -3.9295  -3.9142  -3.8995  -3.8981  -3.8948
    -3.8945  -3.8912  -3.8868  -3.8563  -3.8393  -3.7952  -3.7939  -3.7611
    -3.7306  -3.7292  -3.7254  -3.7173  -3.7024  -3.7013  -3.6898  -3.6406
    -3.6400  -3.6352  -3.6335  -3.5503  -3.5460  -3.5278  -3.5192  -3.4928
    -3.4921  -3.4766  -3.4515  -3.4500  -3.4072  -3.4055  -3.4047  -3.4022
    -3.3804  -3.3793  -3.3004  -3.2988  -3.2973  -3.2824  -3.2692  -3.2630
    -3.2520  -3.2516  -3.2455  -3.2424  -3.2027  -3.2003  -3.1807  -3.1768
    -3.1446  -3.1412  -3.1160  -3.0965  -3.0951  -3.0491  -3.0488  -3.0148
    -2.9888  -2.9877  -2.9869  -2.9845  -2.9829  -2.9799  -2.9585  -2.9459
    -2.9081  -2.9077  -2.8870  -2.8625  -2.8600  -2.8599  -2.8544  -2.8534
    -2.8496  -2.8491  -2.8139  -2.8137  -2.8119  -2.8089  -2.8055  -2.8020
    -2.7479  -2.7422  -2.7378  -2.7365  -2.7163  -2.7148  -2.7095  -2.6202
    -2.6113  -2.6110  -2.6015  -2.5992  -2.5955  -2.5949  -2.5928  -2.5845
    -2.5845  -2.5745  -2.5663  -2.5656  -2.5616  -2.5585  -2.5479  -2.5472
    -2.5412  -2.5194  -2.5094  -2.5054  -2.4931  -2.4929  -2.4779  -2.4754
    -2.4672  -2.4660  -2.4457  -2.4390  -2.4334  -2.4323  -2.4278  -2.3944
    -2.3924  -2.3877  -2.3339  -2.3300  -2.3174  -2.3160  -2.3098  -2.3015
    -2.2792  -2.2780  -2.2729  -2.2656  -2.2598  -2.2500  -2.2448  -2.2335
    -2.2325  -2.2054  -2.2031  -2.1959  -2.1952  -2.1872  -2.1849  -2.1664
    -2.1533  -2.1305  -2.0735  -2.0629  -2.0519  -2.0436  -2.0410  -2.0283
    -2.0067  -1.9795  -1.9785  -1.9617  -1.9472  -1.9358  -1.9275  -1.9148
    -1.8975  -1.8926  -1.8838  -1.8791  -1.8481  -1.8470  -1.8417  -1.8356
    -1.8352  -1.8300  -1.8183  -1.8117  -1.8011  -1.7928  -1.7924  -1.7920
    -1.7915  -1.7872  -1.7859  -1.7755  -1.7554  -1.7542  -1.7480  -1.7419
    -1.7346  -1.7323  -1.7294  -1.7258  -1.7234  -1.7208  -1.6870  -1.6830
    -1.6427  -1.6248  -1.6240  -1.5789  -1.5779  -1.5776  -1.5668  -1.5662
    -1.5545  -1.5485  -1.5417  -1.5377  -1.5359  -1.5175  -1.5155  -1.5135
    -1.4775  -1.4767  -1.4594  -1.4389  -1.4370  -1.3984  -1.3962  -1.3474
    -1.3470  -1.3265  -1.3040  -1.3005  -1.2999  -1.2947  -1.2924  -1.2768
    -1.2748  -1.2742  -1.2740  -1.2733  -1.2726  -1.2712  -1.2624  -1.2564
    -1.2394  -1.2384  -1.2085  -1.2075  -1.2062  -1.1854  -1.1849  -1.1806
    -1.1801  -1.1770  -1.1612  -1.1370  -1.1361  -1.1148  -1.1131  -1.1010
    -1.0926  -1.0814  -1.0806  -1.0520  -1.0518  -1.0449  -1.0401  -1.0055
    -1.0027  -0.9951  -0.9944  -0.9928  -0.9901  -0.9670  -0.9667  -0.9530
    -0.9454  -0.9453  -0.9344  -0.9333  -0.9316  -0.9277  -0.9212  -0.9093
    -0.9075  -0.9019  -0.9019  -0.8967  -0.8904  -0.8852  -0.8757  -0.8333
    -0.8322  -0.8304  -0.8293  -0.8258  -0.8247  -0.7952  -0.7910  -0.7830
    -0.7653  -0.7603  -0.7562  -0.7544  -0.7477  -0.7389  -0.7350  -0.7043
    -0.7024  -0.6915  -0.6907  -0.6712  -0.6711  -0.6558  -0.6322  -0.6240
    -0.6064  -0.6061  -0.5681  -0.5678  -0.5657  -0.5637  -0.5626  -0.5572
    -0.5569  -0.5555  -0.5510  -0.5502  -0.5174  -0.5169  -0.5165  -0.5161
    -0.5142  -0.5040  -0.5003  -0.4905  -0.4719  -0.2121  -0.2021  -0.1603
    -0.1448  -0.1252  -0.0621   0.0844   0.0870   0.1219   0.3994   0.4063
     0.7372   0.7476   0.7842   0.7888   0.8331   0.8414   0.9930   1.0069
     1.1228   1.1254   1.2408   1.7341   1.7759   1.7801   1.8172   1.8173
     1.9441   1.9612   2.0074   2.0190   2.1907   2.1968   2.4721   2.4995
     2.5106   2.5290   2.9520   2.9610   2.9828   2.9863   3.0002   3.0047
     3.0662   3.0687   3.2023   3.3383   3.3493   3.5305   3.5395   3.6403
     3.7098   3.7140   4.0087   4.0149   4.0626   4.0710   4.0720   4.1734
     4.2156   4.2193   4.2251   4.5137   4.5155   4.5450   4.5514   4.6641
     4.6673   4.7229   4.7304   4.9395   5.1830   5.6081   5.6134   5.6627
     5.6826   5.7981   5.8185   5.8306   5.8911   5.8922   5.9099   5.9164
     5.9382   6.0211   6.0388   6.1264   6.2713   6.3053   6.3060   6.3196
     6.3232   6.3324   6.3362   6.3600   6.3713   6.4644   6.4900   6.5907

          k =-0.2500 0.2500-0.0833 (167653 PWs)   bands (ev):

   -19.9552  -7.7788  -6.7198  -6.1896  -6.1890  -5.7515  -5.3551  -5.2503
    -5.2487  -5.0269  -5.0257  -4.9479  -4.9307  -4.8060  -4.7882  -4.6838
    -4.5967  -4.5862  -4.5687  -4.5648  -4.4889  -4.3832  -4.3823  -4.3758
    -4.3559  -4.3520  -4.3510  -4.3474  -4.2950  -4.2918  -4.2916  -4.2678
    -4.2275  -4.1990  -4.1981  -4.1397  -4.1393  -4.1299  -4.1028  -4.0979
    -4.0879  -4.0829  -4.0646  -4.0637  -4.0219  -3.9950  -3.9947  -3.9900
    -3.9886  -3.9868  -3.9504  -3.9295  -3.9227  -3.8992  -3.8978  -3.8949
    -3.8949  -3.8929  -3.8850  -3.8562  -3.8475  -3.7948  -3.7873  -3.7589
    -3.7370  -3.7267  -3.7253  -3.7208  -3.7026  -3.7017  -3.6909  -3.6404
    -3.6392  -3.6350  -3.6328  -3.5498  -3.5438  -3.5277  -3.5246  -3.4928
    -3.4915  -3.4766  -3.4515  -3.4506  -3.4069  -3.4054  -3.4047  -3.4043
    -3.3800  -3.3774  -3.2989  -3.2985  -3.2930  -3.2828  -3.2656  -3.2634
    -3.2519  -3.2515  -3.2458  -3.2451  -3.2018  -3.1996  -3.1805  -3.1803
    -3.1436  -3.1429  -3.1166  -3.0951  -3.0921  -3.0489  -3.0481  -3.0165
    -2.9892  -2.9887  -2.9874  -2.9864  -2.9828  -2.9820  -2.9578  -2.9462
    -2.9082  -2.9072  -2.8870  -2.8625  -2.8603  -2.8595  -2.8543  -2.8535
    -2.8498  -2.8489  -2.8142  -2.8129  -2.8121  -2.8074  -2.8062  -2.8024
    -2.7465  -2.7426  -2.7378  -2.7343  -2.7162  -2.7155  -2.7107  -2.6202
    -2.6112  -2.6105  -2.6013  -2.6005  -2.5950  -2.5940  -2.5916  -2.5844
    -2.5843  -2.5765  -2.5662  -2.5644  -2.5590  -2.5584  -2.5491  -2.5411
    -2.5394  -2.5206  -2.5093  -2.5089  -2.4933  -2.4928  -2.4762  -2.4752
    -2.4669  -2.4662  -2.4457  -2.4366  -2.4345  -2.4294  -2.4222  -2.3980
    -2.3926  -2.3919  -2.3340  -2.3298  -2.3164  -2.3155  -2.3049  -2.3018
    -2.2781  -2.2777  -2.2727  -2.2657  -2.2622  -2.2516  -2.2500  -2.2332
    -2.2329  -2.2068  -2.2050  -2.1960  -2.1956  -2.1857  -2.1850  -2.1788
    -2.1592  -2.1338  -2.0688  -2.0666  -2.0539  -2.0441  -2.0422  -2.0335
    -2.0108  -1.9835  -1.9743  -1.9472  -1.9372  -1.9359  -1.9173  -1.9152
    -1.8983  -1.8950  -1.8850  -1.8784  -1.8493  -1.8475  -1.8393  -1.8368
    -1.8321  -1.8304  -1.8219  -1.8132  -1.8010  -1.7929  -1.7922  -1.7919
    -1.7915  -1.7894  -1.7788  -1.7760  -1.7565  -1.7534  -1.7505  -1.7439
    -1.7342  -1.7335  -1.7303  -1.7252  -1.7243  -1.7174  -1.6890  -1.6829
    -1.6429  -1.6249  -1.6244  -1.5789  -1.5780  -1.5774  -1.5690  -1.5637
    -1.5558  -1.5477  -1.5454  -1.5366  -1.5355  -1.5233  -1.5153  -1.5042
    -1.4777  -1.4769  -1.4594  -1.4389  -1.4384  -1.3995  -1.3952  -1.3490
    -1.3443  -1.3259  -1.3041  -1.3005  -1.2999  -1.2970  -1.2929  -1.2759
    -1.2751  -1.2745  -1.2736  -1.2730  -1.2725  -1.2713  -1.2667  -1.2584
    -1.2417  -1.2377  -1.2084  -1.2079  -1.2025  -1.1854  -1.1844  -1.1811
    -1.1806  -1.1759  -1.1587  -1.1411  -1.1312  -1.1151  -1.1151  -1.0958
    -1.0929  -1.0818  -1.0793  -1.0525  -1.0518  -1.0464  -1.0400  -1.0075
    -1.0052  -0.9956  -0.9934  -0.9925  -0.9877  -0.9669  -0.9667  -0.9533
    -0.9457  -0.9448  -0.9352  -0.9319  -0.9317  -0.9260  -0.9210  -0.9111
    -0.9065  -0.9024  -0.9018  -0.8947  -0.8932  -0.8794  -0.8759  -0.8324
    -0.8323  -0.8310  -0.8290  -0.8287  -0.8240  -0.7987  -0.7849  -0.7832
    -0.7662  -0.7600  -0.7558  -0.7493  -0.7478  -0.7425  -0.7382  -0.7038
    -0.7009  -0.6913  -0.6908  -0.6713  -0.6710  -0.6559  -0.6321  -0.6240
    -0.6066  -0.6055  -0.5681  -0.5678  -0.5656  -0.5643  -0.5619  -0.5574
    -0.5570  -0.5565  -0.5516  -0.5501  -0.5187  -0.5170  -0.5169  -0.5165
    -0.5160  -0.5010  -0.5001  -0.4900  -0.4719  -0.2124  -0.2020  -0.1626
    -0.1422  -0.1249  -0.0659   0.0844   0.0861   0.1242   0.3983   0.4075
     0.7362   0.7503   0.7838   0.7897   0.8324   0.8407   0.9902   1.0024
     1.1228   1.1257   1.2417   1.7342   1.7798   1.7807   1.8161   1.8193
     1.9409   1.9631   2.0066   2.0189   2.1901   2.1974   2.4749   2.4981
     2.5181   2.5270   2.9493   2.9626   2.9824   2.9906   3.0001   3.0045
     3.0651   3.0700   3.2024   3.3399   3.3422   3.5289   3.5315   3.6409
     3.7095   3.7169   4.0088   4.0114   4.0612   4.0710   4.0774   4.1897
     4.2103   4.2153   4.2210   4.5105   4.5156   4.5466   4.5546   4.6652
     4.6674   4.7210   4.7247   4.9132   5.2203   5.6080   5.6140   5.6438
     5.6994   5.8160   5.8170   5.8395   5.8845   5.9030   5.9075   5.9137
     5.9747   6.0052   6.0232   6.0469   6.3004   6.3030   6.3141   6.3159
     6.3201   6.3263   6.3270   6.3444   6.4326   6.4420   6.5067   6.5732

          k = 0.2500-0.2500-0.0833 (167653 PWs)   bands (ev):

   -19.9552  -7.7788  -6.7198  -6.1896  -6.1890  -5.7515  -5.3551  -5.2503
    -5.2487  -5.0269  -5.0257  -4.9479  -4.9307  -4.8060  -4.7882  -4.6838
    -4.5967  -4.5862  -4.5687  -4.5648  -4.4889  -4.3832  -4.3823  -4.3758
    -4.3559  -4.3520  -4.3510  -4.3474  -4.2950  -4.2918  -4.2916  -4.2678
    -4.2275  -4.1990  -4.1981  -4.1397  -4.1393  -4.1299  -4.1028  -4.0979
    -4.0879  -4.0829  -4.0646  -4.0637  -4.0219  -3.9950  -3.9947  -3.9900
    -3.9886  -3.9868  -3.9504  -3.9295  -3.9227  -3.8992  -3.8978  -3.8949
    -3.8949  -3.8929  -3.8850  -3.8562  -3.8475  -3.7948  -3.7873  -3.7589
    -3.7370  -3.7267  -3.7253  -3.7208  -3.7026  -3.7017  -3.6909  -3.6404
    -3.6392  -3.6350  -3.6328  -3.5498  -3.5438  -3.5277  -3.5246  -3.4928
    -3.4915  -3.4766  -3.4515  -3.4506  -3.4069  -3.4054  -3.4047  -3.4043
    -3.3800  -3.3774  -3.2989  -3.2985  -3.2930  -3.2828  -3.2656  -3.2634
    -3.2519  -3.2515  -3.2458  -3.2451  -3.2018  -3.1996  -3.1805  -3.1803
    -3.1436  -3.1429  -3.1166  -3.0951  -3.0921  -3.0489  -3.0481  -3.0165
    -2.9892  -2.9887  -2.9874  -2.9864  -2.9828  -2.9820  -2.9578  -2.9462
    -2.9082  -2.9072  -2.8870  -2.8625  -2.8603  -2.8595  -2.8543  -2.8535
    -2.8498  -2.8489  -2.8142  -2.8129  -2.8121  -2.8074  -2.8062  -2.8024
    -2.7465  -2.7426  -2.7378  -2.7343  -2.7162  -2.7155  -2.7107  -2.6202
    -2.6112  -2.6105  -2.6013  -2.6005  -2.5950  -2.5940  -2.5916  -2.5844
    -2.5843  -2.5765  -2.5662  -2.5644  -2.5590  -2.5584  -2.5491  -2.5411
    -2.5394  -2.5206  -2.5093  -2.5089  -2.4933  -2.4928  -2.4762  -2.4752
    -2.4669  -2.4662  -2.4457  -2.4366  -2.4345  -2.4294  -2.4222  -2.3980
    -2.3926  -2.3919  -2.3340  -2.3298  -2.3164  -2.3155  -2.3049  -2.3018
    -2.2781  -2.2777  -2.2727  -2.2657  -2.2622  -2.2516  -2.2500  -2.2332
    -2.2329  -2.2068  -2.2050  -2.1960  -2.1956  -2.1857  -2.1850  -2.1788
    -2.1592  -2.1338  -2.0688  -2.0666  -2.0539  -2.0441  -2.0422  -2.0335
    -2.0108  -1.9835  -1.9743  -1.9472  -1.9372  -1.9359  -1.9173  -1.9152
    -1.8983  -1.8950  -1.8850  -1.8784  -1.8493  -1.8475  -1.8393  -1.8368
    -1.8321  -1.8304  -1.8219  -1.8132  -1.8010  -1.7929  -1.7922  -1.7919
    -1.7915  -1.7894  -1.7788  -1.7760  -1.7565  -1.7534  -1.7505  -1.7439
    -1.7342  -1.7335  -1.7303  -1.7252  -1.7243  -1.7174  -1.6890  -1.6829
    -1.6429  -1.6249  -1.6244  -1.5789  -1.5780  -1.5774  -1.5690  -1.5637
    -1.5558  -1.5477  -1.5454  -1.5366  -1.5355  -1.5233  -1.5153  -1.5042
    -1.4777  -1.4769  -1.4594  -1.4389  -1.4384  -1.3995  -1.3952  -1.3490
    -1.3443  -1.3259  -1.3041  -1.3005  -1.2999  -1.2970  -1.2929  -1.2759
    -1.2751  -1.2745  -1.2736  -1.2730  -1.2725  -1.2713  -1.2667  -1.2584
    -1.2417  -1.2377  -1.2084  -1.2079  -1.2025  -1.1854  -1.1844  -1.1811
    -1.1806  -1.1759  -1.1587  -1.1411  -1.1312  -1.1151  -1.1151  -1.0958
    -1.0929  -1.0818  -1.0793  -1.0525  -1.0518  -1.0464  -1.0400  -1.0075
    -1.0052  -0.9956  -0.9934  -0.9925  -0.9877  -0.9669  -0.9667  -0.9533
    -0.9457  -0.9448  -0.9352  -0.9319  -0.9317  -0.9260  -0.9210  -0.9111
    -0.9065  -0.9024  -0.9018  -0.8947  -0.8932  -0.8794  -0.8759  -0.8324
    -0.8323  -0.8310  -0.8290  -0.8287  -0.8240  -0.7987  -0.7849  -0.7832
    -0.7662  -0.7600  -0.7558  -0.7493  -0.7478  -0.7425  -0.7382  -0.7038
    -0.7009  -0.6913  -0.6908  -0.6713  -0.6710  -0.6559  -0.6321  -0.6240
    -0.6066  -0.6055  -0.5681  -0.5678  -0.5656  -0.5643  -0.5619  -0.5574
    -0.5570  -0.5565  -0.5516  -0.5501  -0.5187  -0.5170  -0.5169  -0.5165
    -0.5160  -0.5010  -0.5001  -0.4900  -0.4719  -0.2124  -0.2020  -0.1626
    -0.1422  -0.1249  -0.0659   0.0844   0.0861   0.1242   0.3983   0.4075
     0.7362   0.7503   0.7838   0.7897   0.8324   0.8407   0.9902   1.0024
     1.1228   1.1257   1.2417   1.7342   1.7798   1.7807   1.8161   1.8193
     1.9409   1.9631   2.0066   2.0189   2.1901   2.1974   2.4749   2.4981
     2.5181   2.5270   2.9493   2.9626   2.9824   2.9906   3.0001   3.0045
     3.0651   3.0700   3.2024   3.3399   3.3422   3.5289   3.5315   3.6409
     3.7095   3.7169   4.0088   4.0114   4.0612   4.0710   4.0774   4.1897
     4.2103   4.2153   4.2210   4.5105   4.5156   4.5466   4.5546   4.6652
     4.6674   4.7210   4.7247   4.9132   5.2203   5.6080   5.6140   5.6438
     5.6994   5.8161   5.8169   5.8395   5.8845   5.9029   5.9075   5.9137
     5.9751   6.0051   6.0232   6.0469   6.3004   6.3029   6.3141   6.3159
     6.3201   6.3263   6.3269   6.3444   6.4323   6.4423   6.5065   6.5732

          k =-0.2500 0.2500 0.2500 (167588 PWs)   bands (ev):

   -19.9552  -7.7788  -6.7198  -6.1896  -6.1890  -5.7515  -5.3551  -5.2503
    -5.2487  -5.0269  -5.0257  -4.9479  -4.9307  -4.8060  -4.7882  -4.6838
    -4.5967  -4.5862  -4.5687  -4.5648  -4.4888  -4.3832  -4.3823  -4.3758
    -4.3559  -4.3520  -4.3510  -4.3474  -4.2950  -4.2917  -4.2916  -4.2678
    -4.2275  -4.1990  -4.1981  -4.1397  -4.1393  -4.1299  -4.1028  -4.0979
    -4.0879  -4.0829  -4.0646  -4.0637  -4.0219  -3.9950  -3.9947  -3.9900
    -3.9886  -3.9868  -3.9504  -3.9295  -3.9227  -3.8992  -3.8978  -3.8949
    -3.8949  -3.8929  -3.8850  -3.8562  -3.8475  -3.7948  -3.7873  -3.7589
    -3.7370  -3.7267  -3.7253  -3.7208  -3.7026  -3.7017  -3.6909  -3.6404
    -3.6392  -3.6350  -3.6328  -3.5498  -3.5438  -3.5277  -3.5246  -3.4928
    -3.4915  -3.4766  -3.4515  -3.4506  -3.4069  -3.4054  -3.4047  -3.4043
    -3.3800  -3.3774  -3.2989  -3.2985  -3.2930  -3.2829  -3.2656  -3.2634
    -3.2519  -3.2515  -3.2458  -3.2451  -3.2018  -3.1996  -3.1805  -3.1803
    -3.1436  -3.1429  -3.1166  -3.0951  -3.0921  -3.0489  -3.0481  -3.0165
    -2.9891  -2.9887  -2.9874  -2.9864  -2.9828  -2.9820  -2.9578  -2.9463
    -2.9082  -2.9072  -2.8870  -2.8625  -2.8603  -2.8595  -2.8543  -2.8535
    -2.8498  -2.8489  -2.8142  -2.8129  -2.8121  -2.8074  -2.8062  -2.8024
    -2.7465  -2.7426  -2.7378  -2.7343  -2.7162  -2.7155  -2.7107  -2.6202
    -2.6112  -2.6105  -2.6013  -2.6005  -2.5950  -2.5940  -2.5915  -2.5844
    -2.5843  -2.5765  -2.5662  -2.5644  -2.5590  -2.5584  -2.5491  -2.5411
    -2.5394  -2.5206  -2.5093  -2.5089  -2.4933  -2.4928  -2.4762  -2.4752
    -2.4669  -2.4662  -2.4457  -2.4366  -2.4345  -2.4294  -2.4221  -2.3980
    -2.3926  -2.3919  -2.3340  -2.3298  -2.3164  -2.3155  -2.3049  -2.3018
    -2.2781  -2.2777  -2.2727  -2.2657  -2.2622  -2.2516  -2.2500  -2.2332
    -2.2329  -2.2068  -2.2050  -2.1960  -2.1956  -2.1857  -2.1850  -2.1788
    -2.1592  -2.1338  -2.0688  -2.0666  -2.0539  -2.0441  -2.0422  -2.0335
    -2.0108  -1.9835  -1.9743  -1.9472  -1.9372  -1.9359  -1.9173  -1.9152
    -1.8983  -1.8950  -1.8850  -1.8784  -1.8492  -1.8475  -1.8393  -1.8368
    -1.8321  -1.8304  -1.8219  -1.8132  -1.8011  -1.7929  -1.7922  -1.7919
    -1.7915  -1.7894  -1.7788  -1.7760  -1.7565  -1.7535  -1.7505  -1.7439
    -1.7342  -1.7335  -1.7303  -1.7252  -1.7243  -1.7174  -1.6890  -1.6829
    -1.6429  -1.6249  -1.6244  -1.5789  -1.5780  -1.5774  -1.5690  -1.5637
    -1.5558  -1.5477  -1.5454  -1.5366  -1.5355  -1.5233  -1.5153  -1.5042
    -1.4777  -1.4769  -1.4594  -1.4389  -1.4384  -1.3995  -1.3953  -1.3490
    -1.3443  -1.3259  -1.3041  -1.3005  -1.2999  -1.2970  -1.2929  -1.2759
    -1.2751  -1.2745  -1.2736  -1.2730  -1.2725  -1.2713  -1.2667  -1.2584
    -1.2417  -1.2377  -1.2085  -1.2079  -1.2025  -1.1854  -1.1844  -1.1811
    -1.1806  -1.1759  -1.1587  -1.1411  -1.1311  -1.1151  -1.1151  -1.0958
    -1.0929  -1.0818  -1.0792  -1.0525  -1.0519  -1.0464  -1.0400  -1.0075
    -1.0052  -0.9956  -0.9934  -0.9925  -0.9877  -0.9669  -0.9667  -0.9533
    -0.9457  -0.9448  -0.9352  -0.9319  -0.9317  -0.9260  -0.9210  -0.9111
    -0.9065  -0.9023  -0.9018  -0.8946  -0.8932  -0.8794  -0.8759  -0.8324
    -0.8323  -0.8310  -0.8290  -0.8287  -0.8240  -0.7987  -0.7849  -0.7832
    -0.7662  -0.7600  -0.7558  -0.7493  -0.7478  -0.7425  -0.7382  -0.7038
    -0.7009  -0.6913  -0.6908  -0.6713  -0.6710  -0.6559  -0.6321  -0.6240
    -0.6066  -0.6055  -0.5681  -0.5678  -0.5656  -0.5643  -0.5620  -0.5574
    -0.5570  -0.5565  -0.5516  -0.5501  -0.5187  -0.5170  -0.5169  -0.5165
    -0.5160  -0.5010  -0.5001  -0.4900  -0.4719  -0.2124  -0.2020  -0.1626
    -0.1422  -0.1249  -0.0659   0.0844   0.0861   0.1242   0.3983   0.4075
     0.7362   0.7503   0.7838   0.7897   0.8324   0.8407   0.9902   1.0024
     1.1228   1.1257   1.2417   1.7342   1.7798   1.7807   1.8161   1.8193
     1.9409   1.9631   2.0066   2.0189   2.1901   2.1974   2.4749   2.4981
     2.5181   2.5270   2.9493   2.9626   2.9824   2.9906   3.0001   3.0045
     3.0651   3.0700   3.2024   3.3399   3.3422   3.5289   3.5315   3.6409
     3.7095   3.7169   4.0088   4.0114   4.0612   4.0710   4.0774   4.1897
     4.2104   4.2153   4.2210   4.5105   4.5156   4.5466   4.5546   4.6652
     4.6674   4.7210   4.7247   4.9131   5.2172   5.6077   5.6140   5.6441
     5.6892   5.8113   5.8162   5.8371   5.8841   5.9049   5.9075   5.9141
     5.9783   6.0043   6.0231   6.1143   6.2749   6.3027   6.3142   6.3162
     6.3233   6.3263   6.3423   6.3707   6.4199   6.5161   6.5272   6.5753

     the Fermi energy is     1.0686 ev

!    total energy              =   -7379.97619387 Ry
     Harris-Foulkes estimate   =   -7379.97619388 Ry
     estimated scf accuracy    <          5.9E-09 Ry

     The total energy is the sum of the following terms:

     one-electron contribution =  -48855.77296076 Ry
     hartree contribution      =   24980.59306724 Ry
     xc contribution           =   -3556.26846592 Ry
     ewald contribution        =   20051.47111252 Ry
     smearing contrib. (-TS)   =       0.00105306 Ry

     convergence has been achieved in  25 iterations

     Writing output data file 9947915.save

     init_run     :     90.27s CPU     97.89s WALL (       1 calls)
     electrons    :   5074.14s CPU   5455.60s WALL (       1 calls)

     Called by init_run:
     wfcinit      :     62.48s CPU     69.68s WALL (       1 calls)
     potinit      :      3.14s CPU      3.23s WALL (       1 calls)

     Called by electrons:
     c_bands      :   3865.17s CPU   4174.65s WALL (      26 calls)
     sum_band     :    816.57s CPU    881.61s WALL (      26 calls)
     v_of_rho     :     14.23s CPU     15.68s WALL (      26 calls)
     newd         :    389.49s CPU    394.31s WALL (      26 calls)
     mix_rho      :      2.84s CPU      3.19s WALL (      26 calls)

     Called by c_bands:
     init_us_2    :     14.28s CPU     14.57s WALL (     318 calls)
     cegterg      :   3807.42s CPU   4116.08s WALL (     156 calls)

     Called by *egterg:
     h_psi        :   1849.28s CPU   2134.51s WALL (     766 calls)
     s_psi        :    215.77s CPU    216.99s WALL (     766 calls)
     g_psi        :      4.34s CPU      4.41s WALL (     604 calls)
     cdiaghg      :   1040.20s CPU   1043.51s WALL (     754 calls)

     Called by h_psi:
     add_vuspsi   :    214.32s CPU    215.63s WALL (     766 calls)

     General routines
     calbec       :    308.37s CPU    309.63s WALL (     922 calls)
     fft          :     79.43s CPU     81.56s WALL (     416 calls)
     ffts         :      1.00s CPU      1.27s WALL (      52 calls)
     fftw         :   1570.75s CPU   1881.78s WALL (  417114 calls)
     interpolate  :      3.24s CPU      3.88s WALL (      52 calls)
     davcio       :      0.00s CPU      0.28s WALL (       6 calls)

     Parallel routines
     fft_scatter  :   1154.90s CPU   1406.83s WALL (  417582 calls)

     PWSCF        :     1h26m CPU        1h32m WALL


   This run was terminated on:  19: 0:16   9Aug2015            

=------------------------------------------------------------------------------=
   JOB DONE.
=------------------------------------------------------------------------------=
