
     Program PWSCF v.5.3.0 (svn rev. 11974) starts on  8Nov2016 at 14:15: 0 

     This program is part of the open-source Quantum ESPRESSO suite
     for quantum simulation of materials; please cite
         "P. Giannozzi et al., J. Phys.:Condens. Matter 21 395502 (2009);
          URL http://www.quantum-espresso.org", 
     in publications or presentations arising from this work. More details at
     http://www.quantum-espresso.org/quote

     Parallel version (MPI), running on    48 processors
     K-points division:     npool     =      12
     R & G space division:  proc/nbgrp/npool/nimage =       4
     Reading input from top.O1.Au50.d.3.0.phi.0.psi.90.in
Warning: card &CELL ignored
Warning: card / ignored

     Current dimensions of program PWSCF are:
     Max number of different atomic species (ntypx) = 10
     Max number of k-points (npk) =  40000
     Max angular momentum in pseudopotentials (lmaxx) =  3

     IMPORTANT: XC functional enforced from input :
     Exchange-correlation      = VDW-DF ( 1  4  4  0 1 0)
     Any further DFT definition will be discarded
     Please, verify this is what you really want


     Subspace diagonalization in iterative solution of the eigenvalue problem:
     a serial algorithm will be used

 
     Parallelization info
     --------------------
     sticks:   dense  smooth     PW     G-vecs:    dense   smooth      PW
     Min        3567    1786    466               774291   273758   36291
     Max        3568    1787    467               774302   273793   36293
     Sum       14269    7147   1867              3097177  1095093  145167
 

     Title: 
     top.O1.Au50.d.3.0.phi.0.psi.90                                             


     bravais-lattice index     =            4
     lattice parameter (alat)  =      22.7436  a.u.
     unit-cell volume          =   22924.1508 (a.u.)^3
     number of atoms/cell      =           67
     number of atomic types    =            3
     number of electrons       =       712.00
     number of Kohn-Sham states=          427
     kinetic-energy cutoff     =      50.0000  Ry
     charge density cutoff     =     400.0000  Ry
     convergence threshold     =      1.0E-08
     mixing beta               =       0.7000
     number of iterations used =            8  plain     mixing
     Exchange-correlation      = VDW-DF ( 1  4  4  0 1 0)
     nstep                     =           50


     celldm(1)=  22.743643  celldm(2)=   0.000000  celldm(3)=   2.250000
     celldm(4)=   0.000000  celldm(5)=   0.000000  celldm(6)=   0.000000

     crystal axes: (cart. coord. in units of alat)
               a(1) = (   1.000000   0.000000   0.000000 )  
               a(2) = (  -0.500000   0.866025   0.000000 )  
               a(3) = (   0.000000   0.000000   2.250000 )  

     reciprocal axes: (cart. coord. in units 2 pi/alat)
               b(1) = (  1.000000  0.577350  0.000000 )  
               b(2) = (  0.000000  1.154701  0.000000 )  
               b(3) = (  0.000000  0.000000  0.444444 )  


     PseudoPot. # 1 for Au read from file:
     ../../../../pseudo/Au.pbe-nd-van.UPF
     MD5 check sum: 458681b50f36d87ef23c61b04bba420a
     Pseudo is Ultrasoft + core correction, Zval = 11.0
     Generated by new atomic code, or converted to UPF format
     Using radial grid of  985 points,  3 beta functions with: 
                l(1) =   1
                l(2) =   2
                l(3) =   2
     Q(r) pseudized with  8 coefficients,  rinner =    1.100   1.100   1.100
                                                       1.100   1.100

     PseudoPot. # 2 for H  read from file:
     ../../../../pseudo/H.pbe-van_ak.UPF
     MD5 check sum: 403db7282739603aa925980fa9b8608d
     Pseudo is Ultrasoft, Zval =  1.0
     Generated by new atomic code, or converted to UPF format
     Using radial grid of  615 points,  1 beta functions with: 
                l(1) =   0
     Q(r) pseudized with  8 coefficients,  rinner =    0.800

     PseudoPot. # 3 for O  read from file:
     ../../../../pseudo/O.pbe-van_ak.UPF
     MD5 check sum: 4b8c549914a63cae506c6ff22b5af4fe
     Pseudo is Ultrasoft, Zval =  6.0
     Generated by new atomic code, or converted to UPF format
     Using radial grid of  737 points,  4 beta functions with: 
                l(1) =   0
                l(2) =   0
                l(3) =   1
                l(4) =   1
     Q(r) pseudized with  8 coefficients,  rinner =    0.800   0.800   0.800


     vdW kernel table read from file vdW_kernel_table
     MD5 check sum: 48e77a2e26edf626eeb0eaa751ad5cac

     atomic species   valence    mass     pseudopotential
        Au            11.00   196.96657     Au( 1.00)
        H              1.00     1.01000     H ( 1.00)
        O              6.00    16.00000     O ( 1.00)

     No symmetry found



   Cartesian axes

     site n.     atom                  positions (alat units)
         1           O   tau(   1) = (   0.4790780   0.3968269   0.8622611  )
         2           H   tau(   2) = (   0.4291446   0.3485733   0.8207135  )
         3           H   tau(   3) = (   0.5274974   0.3460662   0.9025680  )
         4           Au  tau(   4) = (   0.3540481   0.6132292   0.0000000  )
         5           Au  tau(   5) = (   0.4790062   0.3967954   0.0000000  )
         6           Au  tau(   6) = (   0.6039644   0.1803616   0.0000000  )
         7           Au  tau(   7) = (   0.7289225  -0.0360723   0.0000000  )
         8           Au  tau(   8) = (   0.1041318   0.6132292   0.0000000  )
         9           Au  tau(   9) = (   0.2290899   0.3967954   0.0000000  )
        10           Au  tau(  10) = (   0.3540481   0.1803616   0.0000000  )
        11           Au  tau(  11) = (   0.4790062  -0.0360723   0.0000000  )
        12           Au  tau(  12) = (  -0.1457845   0.6132292   0.0000000  )
        13           Au  tau(  13) = (  -0.0208264   0.3967954   0.0000000  )
        14           Au  tau(  14) = (   0.1041318   0.1803616   0.0000000  )
        15           Au  tau(  15) = (   0.2290899  -0.0360723   0.0000000  )
        16           Au  tau(  16) = (  -0.3957008   0.6132292   0.0000000  )
        17           Au  tau(  17) = (  -0.2707426   0.3967954   0.0000000  )
        18           Au  tau(  18) = (  -0.1457845   0.1803616   0.0000000  )
        19           Au  tau(  19) = (  -0.0208264  -0.0360723   0.0000000  )
        20           Au  tau(  20) = (   0.4790062   0.6853738   0.2040557  )
        21           Au  tau(  21) = (   0.6039644   0.4689400   0.2040557  )
        22           Au  tau(  22) = (   0.7289225   0.2525062   0.2040557  )
        23           Au  tau(  23) = (   0.8538806   0.0360723   0.2040557  )
        24           Au  tau(  24) = (   0.2290899   0.6853738   0.2040557  )
        25           Au  tau(  25) = (   0.3540481   0.4689400   0.2040557  )
        26           Au  tau(  26) = (   0.4790062   0.2525062   0.2040557  )
        27           Au  tau(  27) = (   0.6039644   0.0360723   0.2040557  )
        28           Au  tau(  28) = (  -0.0208264   0.6853738   0.2040557  )
        29           Au  tau(  29) = (   0.1041318   0.4689400   0.2040557  )
        30           Au  tau(  30) = (   0.2290899   0.2525062   0.2040557  )
        31           Au  tau(  31) = (   0.3540481   0.0360723   0.2040557  )
        32           Au  tau(  32) = (  -0.2707426   0.6853738   0.2040557  )
        33           Au  tau(  33) = (  -0.1457845   0.4689400   0.2040557  )
        34           Au  tau(  34) = (  -0.0208264   0.2525062   0.2040557  )
        35           Au  tau(  35) = (   0.1041318   0.0360723   0.2040557  )
        36           Au  tau(  36) = (   0.3541162   0.7576593   0.4066483  )
        37           Au  tau(  37) = (   0.4791000   0.5411421   0.4066696  )
        38           Au  tau(  38) = (   0.6040570   0.3246862   0.4066618  )
        39           Au  tau(  39) = (   0.7290270   0.1081684   0.4066530  )
        40           Au  tau(  40) = (   0.1041162   0.7576236   0.4066247  )
        41           Au  tau(  41) = (   0.2291001   0.5411062   0.4066455  )
        42           Au  tau(  42) = (   0.3540567   0.3246505   0.4066380  )
        43           Au  tau(  43) = (   0.4790276   0.1081324   0.4066292  )
        44           Au  tau(  44) = (  -0.1458201   0.7576104   0.4066225  )
        45           Au  tau(  45) = (  -0.0208365   0.5410930   0.4066438  )
        46           Au  tau(  46) = (   0.1041202   0.3246372   0.4066359  )
        47           Au  tau(  47) = (   0.2290908   0.1081193   0.4066273  )
        48           Au  tau(  48) = (  -0.3958167   0.7575791   0.4065812  )
        49           Au  tau(  49) = (  -0.2708328   0.5410617   0.4066025  )
        50           Au  tau(  50) = (  -0.1458763   0.3246061   0.4065947  )
        51           Au  tau(  51) = (  -0.0209056   0.1080882   0.4065858  )
        52           Au  tau(  52) = (   0.3541084   0.6133344   0.6129762  )
        53           Au  tau(  53) = (   0.4790780   0.3968269   0.6129968  )
        54           Au  tau(  54) = (   0.6040356   0.1803811   0.6129859  )
        55           Au  tau(  55) = (   0.7290165  -0.0361221   0.6129385  )
        56           Au  tau(  56) = (   0.1041243   0.6133091   0.6130023  )
        57           Au  tau(  57) = (   0.2290941   0.3968013   0.6130241  )
        58           Au  tau(  58) = (   0.3540515   0.1803552   0.6130121  )
        59           Au  tau(  59) = (   0.4790323  -0.0361475   0.6129659  )
        60           Au  tau(  60) = (  -0.1458030   0.6133014   0.6129980  )
        61           Au  tau(  61) = (  -0.0208339   0.3967936   0.6130189  )
        62           Au  tau(  62) = (   0.1041239   0.1803477   0.6130083  )
        63           Au  tau(  63) = (   0.2291046  -0.0361554   0.6129607  )
        64           Au  tau(  64) = (  -0.3957908   0.6132739   0.6129471  )
        65           Au  tau(  65) = (  -0.2708208   0.3967658   0.6129688  )
        66           Au  tau(  66) = (  -0.1458636   0.1803200   0.6129569  )
        67           Au  tau(  67) = (  -0.0208823  -0.0361826   0.6129110  )

     number of k points=    12  Marzari-Vanderbilt smearing, width (Ry)=  0.0200
                       cart. coord. in units 2pi/alat
        k(    1) = (   0.2500000   0.4330127   0.1111111), wk =   0.1666667
        k(    2) = (   0.2500000  -0.1443376   0.1111111), wk =   0.1666667
        k(    3) = (  -0.2500000  -0.4330127   0.1111111), wk =   0.1666667
        k(    4) = (  -0.2500000   0.4330127  -0.1111111), wk =   0.1666667
        k(    5) = (   0.2500000  -0.4330127  -0.1111111), wk =   0.1666667
        k(    6) = (   0.5000000   0.0000000   0.1111111), wk =   0.1666667
        k(    7) = (  -0.5000000   0.0000000   0.1111111), wk =   0.1666667
        k(    8) = (  -0.2500000   0.1443376   0.1111111), wk =   0.1666667
        k(    9) = (  -0.2500000  -0.1443376  -0.1111111), wk =   0.1666667
        k(   10) = (   0.2500000   0.1443376  -0.1111111), wk =   0.1666667
        k(   11) = (   0.0000000  -0.2886751   0.1111111), wk =   0.1666667
        k(   12) = (   0.0000000   0.2886751   0.1111111), wk =   0.1666667

     Dense  grid:  3097177 G-vectors     FFT dimensions: ( 150, 150, 360)

     Smooth grid:  1095093 G-vectors     FFT dimensions: ( 108, 108, 240)

     Largest allocated arrays     est. size (Mb)     dimensions
        Kohn-Sham Wavefunctions       223.01 Mb     (   34227,  427)
        NL pseudopotentials           439.75 Mb     (   34227,  842)
        Each V/rho on FFT grid         30.90 Mb     ( 2025000)
        Each G-vector array             5.91 Mb     (  774293)
        G-vector shells                 0.23 Mb     (   30064)
     Largest temporary arrays     est. size (Mb)     dimensions
        Auxiliary wavefunctions       892.02 Mb     (   34227, 1708)
        Each subspace H/S matrix       44.51 Mb     (    1708, 1708)
        Each <psi_i|beta_j> matrix      5.49 Mb     (     842,  427)
        Arrays for rho mixing         247.19 Mb     ( 2025000,    8)

     Initial potential from superposition of free atoms
     Check: negative starting charge=   -1.730289

     starting charge  711.25682, renormalised to  712.00000

     negative rho (up, down):  1.732E+00 0.000E+00


     %%%%%%%%%%%%%%%%%%%%%%%%%%%%%%%%%%%%%%%%%%%%%%%%%%%%%%%%%%%%%%%%%%%%%%%%
     %                                                                      %
     % You are using vdW-DF, which was implemented by the Thonhauser group. %
     % Please cite the following two papers that made this development      %
     % possible and the two reviews that describe the various versions:     %
     %                                                                      %
     %   T. Thonhauser et al., PRL 115, 136402 (2015).                      %
     %   T. Thonhauser et al., PRB 76, 125112 (2007).                       %
     %   K. Berland et al., Rep. Prog. Phys. 78, 066501 (2015).             %
     %   D.C. Langreth et al., J. Phys.: Condens. Matter 21, 084203 (2009). %
     %                                                                      %
     %                                                                      %
     % If you are calculating the stress with vdW-DF, please also cite:     %
     %                                                                      %
     %   R. Sabatini et al., J. Phys.: Condens. Matter 24, 424209 (2012).   %
     %                                                                      %
     %%%%%%%%%%%%%%%%%%%%%%%%%%%%%%%%%%%%%%%%%%%%%%%%%%%%%%%%%%%%%%%%%%%%%%%%


     Starting wfc are  582 randomized atomic wfcs

     total cpu time spent up to now is       71.1 secs

     per-process dynamical memory:  1322.9 Mb

     Self-consistent Calculation

     iteration #  1     ecut=    50.00 Ry     beta=0.70
     Davidson diagonalization with overlap
     ethr =  1.00E-02,  avg # of iterations =  3.0

     Threshold (ethr) on eigenvalues was too large:
     Diagonalizing with lowered threshold

     Davidson diagonalization with overlap
     ethr =  3.48E-04,  avg # of iterations =  3.5

     negative rho (up, down):  1.727E+00 0.000E+00

     total cpu time spent up to now is      327.7 secs

     total energy              =   -6602.78786355 Ry
     Harris-Foulkes estimate   =   -6605.03360720 Ry
     estimated scf accuracy    <       2.81493623 Ry

     iteration #  2     ecut=    50.00 Ry     beta=0.70
     Davidson diagonalization with overlap
     ethr =  3.95E-04,  avg # of iterations = 11.1

     negative rho (up, down):  1.726E+00 0.000E+00

     total cpu time spent up to now is      603.4 secs

     total energy              =   -6596.71891894 Ry
     Harris-Foulkes estimate   =   -6610.15349607 Ry
     estimated scf accuracy    <      74.96740156 Ry

     iteration #  3     ecut=    50.00 Ry     beta=0.70
     Davidson diagonalization with overlap
     ethr =  3.95E-04,  avg # of iterations =  6.5

     negative rho (up, down):  1.737E+00 0.000E+00

     total cpu time spent up to now is      825.8 secs

     total energy              =   -6603.20051707 Ry
     Harris-Foulkes estimate   =   -6605.00058255 Ry
     estimated scf accuracy    <       8.04060887 Ry

     iteration #  4     ecut=    50.00 Ry     beta=0.70
     Davidson diagonalization with overlap
     ethr =  3.95E-04,  avg # of iterations =  6.3

     negative rho (up, down):  1.738E+00 0.000E+00

     total cpu time spent up to now is      973.3 secs

     total energy              =   -6603.40728445 Ry
     Harris-Foulkes estimate   =   -6605.28087275 Ry
     estimated scf accuracy    <      18.86181720 Ry

     iteration #  5     ecut=    50.00 Ry     beta=0.70
     Davidson diagonalization with overlap
     ethr =  3.95E-04,  avg # of iterations =  6.7

     negative rho (up, down):  1.748E+00 0.000E+00

     total cpu time spent up to now is     1119.1 secs

     total energy              =   -6604.34905814 Ry
     Harris-Foulkes estimate   =   -6604.59007921 Ry
     estimated scf accuracy    <       1.47319065 Ry

     iteration #  6     ecut=    50.00 Ry     beta=0.70
     Davidson diagonalization with overlap
     ethr =  2.07E-04,  avg # of iterations =  3.4

     negative rho (up, down):  1.752E+00 0.000E+00

     total cpu time spent up to now is     1246.1 secs

     total energy              =   -6604.42046858 Ry
     Harris-Foulkes estimate   =   -6604.46488496 Ry
     estimated scf accuracy    <       0.13248152 Ry

     iteration #  7     ecut=    50.00 Ry     beta=0.70
     Davidson diagonalization with overlap
     ethr =  1.86E-05,  avg # of iterations = 12.8

     negative rho (up, down):  1.754E+00 0.000E+00

     total cpu time spent up to now is     1416.2 secs

     total energy              =   -6604.42805444 Ry
     Harris-Foulkes estimate   =   -6604.45374963 Ry
     estimated scf accuracy    <       0.10594794 Ry

     iteration #  8     ecut=    50.00 Ry     beta=0.70
     Davidson diagonalization with overlap
     ethr =  1.49E-05,  avg # of iterations =  3.5

     negative rho (up, down):  1.755E+00 0.000E+00

     total cpu time spent up to now is     1545.7 secs

     total energy              =   -6604.43101933 Ry
     Harris-Foulkes estimate   =   -6604.44363743 Ry
     estimated scf accuracy    <       0.04468982 Ry

     iteration #  9     ecut=    50.00 Ry     beta=0.70
     Davidson diagonalization with overlap
     ethr =  6.28E-06,  avg # of iterations =  5.5

     negative rho (up, down):  1.756E+00 0.000E+00

     total cpu time spent up to now is     1684.0 secs

     total energy              =   -6604.43218892 Ry
     Harris-Foulkes estimate   =   -6604.43742527 Ry
     estimated scf accuracy    <       0.01624432 Ry

     iteration # 10     ecut=    50.00 Ry     beta=0.70
     Davidson diagonalization with overlap
     ethr =  2.28E-06,  avg # of iterations =  6.9

     negative rho (up, down):  1.757E+00 0.000E+00

     total cpu time spent up to now is     1826.3 secs

     total energy              =   -6604.43275013 Ry
     Harris-Foulkes estimate   =   -6604.43470505 Ry
     estimated scf accuracy    <       0.00663554 Ry

     iteration # 11     ecut=    50.00 Ry     beta=0.70
     Davidson diagonalization with overlap
     ethr =  9.32E-07,  avg # of iterations =  3.1

     negative rho (up, down):  1.757E+00 0.000E+00

     total cpu time spent up to now is     1957.1 secs

     total energy              =   -6604.43304093 Ry
     Harris-Foulkes estimate   =   -6604.43381617 Ry
     estimated scf accuracy    <       0.00306445 Ry

     iteration # 12     ecut=    50.00 Ry     beta=0.70
     Davidson diagonalization with overlap
     ethr =  4.30E-07,  avg # of iterations =  2.0

     negative rho (up, down):  1.757E+00 0.000E+00

     total cpu time spent up to now is     2079.7 secs

     total energy              =   -6604.43311754 Ry
     Harris-Foulkes estimate   =   -6604.43340768 Ry
     estimated scf accuracy    <       0.00057738 Ry

     iteration # 13     ecut=    50.00 Ry     beta=0.70
     Davidson diagonalization with overlap
     ethr =  8.11E-08,  avg # of iterations =  5.5

     negative rho (up, down):  1.757E+00 0.000E+00

     total cpu time spent up to now is     2224.6 secs

     total energy              =   -6604.43318461 Ry
     Harris-Foulkes estimate   =   -6604.43329513 Ry
     estimated scf accuracy    <       0.00035600 Ry

     iteration # 14     ecut=    50.00 Ry     beta=0.70
     Davidson diagonalization with overlap
     ethr =  5.00E-08,  avg # of iterations =  2.0

     negative rho (up, down):  1.757E+00 0.000E+00

     total cpu time spent up to now is     2347.9 secs

     total energy              =   -6604.43322846 Ry
     Harris-Foulkes estimate   =   -6604.43326562 Ry
     estimated scf accuracy    <       0.00016490 Ry

     iteration # 15     ecut=    50.00 Ry     beta=0.70
     Davidson diagonalization with overlap
     ethr =  2.32E-08,  avg # of iterations =  2.0

     negative rho (up, down):  1.757E+00 0.000E+00

     total cpu time spent up to now is     2470.3 secs

     total energy              =   -6604.43324574 Ry
     Harris-Foulkes estimate   =   -6604.43325514 Ry
     estimated scf accuracy    <       0.00004673 Ry

     iteration # 16     ecut=    50.00 Ry     beta=0.70
     Davidson diagonalization with overlap
     ethr =  6.56E-09,  avg # of iterations =  2.0

     negative rho (up, down):  1.757E+00 0.000E+00

     total cpu time spent up to now is     2592.8 secs

     total energy              =   -6604.43324857 Ry
     Harris-Foulkes estimate   =   -6604.43325174 Ry
     estimated scf accuracy    <       0.00001382 Ry

     iteration # 17     ecut=    50.00 Ry     beta=0.70
     Davidson diagonalization with overlap
     ethr =  1.94E-09,  avg # of iterations =  2.0

     negative rho (up, down):  1.757E+00 0.000E+00

     total cpu time spent up to now is     2715.0 secs

     total energy              =   -6604.43324942 Ry
     Harris-Foulkes estimate   =   -6604.43325240 Ry
     estimated scf accuracy    <       0.00002608 Ry

     iteration # 18     ecut=    50.00 Ry     beta=0.70
     Davidson diagonalization with overlap
     ethr =  1.94E-09,  avg # of iterations =  2.0

     negative rho (up, down):  1.757E+00 0.000E+00

     total cpu time spent up to now is     2836.2 secs

     total energy              =   -6604.43325056 Ry
     Harris-Foulkes estimate   =   -6604.43325135 Ry
     estimated scf accuracy    <       0.00000308 Ry

     iteration # 19     ecut=    50.00 Ry     beta=0.70
     Davidson diagonalization with overlap
     ethr =  4.32E-10,  avg # of iterations =  2.0

     negative rho (up, down):  1.757E+00 0.000E+00

     total cpu time spent up to now is     2958.5 secs

     total energy              =   -6604.43325097 Ry
     Harris-Foulkes estimate   =   -6604.43325112 Ry
     estimated scf accuracy    <       0.00000073 Ry

     iteration # 20     ecut=    50.00 Ry     beta=0.70
     Davidson diagonalization with overlap
     ethr =  1.02E-10,  avg # of iterations =  2.0

     negative rho (up, down):  1.757E+00 0.000E+00

     total cpu time spent up to now is     3081.4 secs

     total energy              =   -6604.43325109 Ry
     Harris-Foulkes estimate   =   -6604.43325109 Ry
     estimated scf accuracy    <       0.00000007 Ry

     iteration # 21     ecut=    50.00 Ry     beta=0.70
     Davidson diagonalization with overlap
     ethr =  9.45E-12,  avg # of iterations =  3.0

     negative rho (up, down):  1.757E+00 0.000E+00

     total cpu time spent up to now is     3237.5 secs

     total energy              =   -6604.43325109 Ry
     Harris-Foulkes estimate   =   -6604.43325112 Ry
     estimated scf accuracy    <       0.00000015 Ry

     iteration # 22     ecut=    50.00 Ry     beta=0.70
     Davidson diagonalization with overlap
     ethr =  9.45E-12,  avg # of iterations =  2.1

     negative rho (up, down):  1.757E+00 0.000E+00

     total cpu time spent up to now is     3367.7 secs

     End of self-consistent calculation

          k = 0.2500 0.4330 0.1111 (136853 PWs)   bands (ev):

   -19.0459  -6.8955  -6.3243  -5.9255  -5.9249  -5.2482  -4.9141  -4.9138
    -4.8764  -4.8746  -4.5138  -4.5134  -4.4150  -4.4149  -4.4010  -4.3787
    -4.3569  -4.2479  -4.2469  -4.2232  -4.1800  -4.1794  -4.1112  -4.1108
    -4.1049  -4.1041  -4.0826  -4.0775  -4.0762  -4.0085  -4.0046  -3.9747
    -3.9739  -3.9622  -3.9620  -3.9389  -3.9388  -3.9161  -3.9080  -3.9078
    -3.8816  -3.8292  -3.8289  -3.7812  -3.7802  -3.7232  -3.7225  -3.6679
    -3.6673  -3.6666  -3.6666  -3.6309  -3.5942  -3.5936  -3.5859  -3.5841
    -3.5838  -3.5553  -3.5536  -3.5454  -3.4847  -3.4843  -3.4763  -3.4571
    -3.4498  -3.3783  -3.3774  -3.3466  -3.3441  -3.3181  -3.3161  -3.3021
    -3.2860  -3.2277  -3.2263  -3.2093  -3.2080  -3.1698  -3.1565  -3.1523
    -3.1190  -3.1069  -3.0819  -3.0801  -3.0727  -3.0720  -3.0603  -3.0557
    -3.0522  -3.0449  -3.0365  -3.0003  -2.9631  -2.9622  -2.9485  -2.9474
    -2.9211  -2.9131  -2.9123  -2.8916  -2.8456  -2.8452  -2.8373  -2.7979
    -2.7910  -2.7794  -2.7791  -2.7515  -2.7499  -2.7200  -2.6836  -2.6822
    -2.6620  -2.6531  -2.6396  -2.6388  -2.5898  -2.5892  -2.5561  -2.5333
    -2.5328  -2.5102  -2.5089  -2.4978  -2.4971  -2.4869  -2.4651  -2.4646
    -2.4196  -2.4189  -2.4177  -2.4019  -2.4012  -2.3945  -2.3869  -2.3847
    -2.3844  -2.3831  -2.3767  -2.3669  -2.3650  -2.3571  -2.3295  -2.3284
    -2.3275  -2.3255  -2.3248  -2.3222  -2.3218  -2.2953  -2.2923  -2.2781
    -2.2774  -2.2594  -2.2587  -2.2508  -2.2489  -2.2484  -2.2470  -2.2301
    -2.2272  -2.2265  -2.2252  -2.2101  -2.1825  -2.1817  -2.1409  -2.1406
    -2.1171  -2.1167  -2.0901  -2.0885  -2.0631  -2.0610  -2.0444  -2.0398
    -2.0118  -1.9966  -1.9916  -1.9878  -1.9840  -1.9808  -1.9743  -1.9720
    -1.9481  -1.9405  -1.9330  -1.8738  -1.8715  -1.8687  -1.8666  -1.8659
    -1.8311  -1.8098  -1.8092  -1.7838  -1.7819  -1.7229  -1.7225  -1.6949
    -1.6806  -1.6735  -1.6144  -1.6130  -1.6030  -1.6003  -1.5902  -1.5888
    -1.5852  -1.5772  -1.5757  -1.5367  -1.5222  -1.5107  -1.5079  -1.5070
    -1.4913  -1.4883  -1.4582  -1.4527  -1.4441  -1.4354  -1.4350  -1.4294
    -1.4271  -1.4147  -1.4128  -1.3955  -1.3932  -1.3756  -1.3543  -1.3418
    -1.3403  -1.3210  -1.3058  -1.2840  -1.2643  -1.2546  -1.2349  -1.2323
    -1.2221  -1.2017  -1.1521  -1.1505  -1.1491  -1.1459  -1.1434  -1.1354
    -1.1220  -1.1158  -1.1014  -1.0752  -1.0726  -1.0439  -1.0430  -1.0377
    -1.0355  -1.0310  -1.0146  -1.0132  -1.0125  -1.0095  -1.0050  -0.9718
    -0.9698  -0.9690  -0.9593  -0.9398  -0.9355  -0.9307  -0.9074  -0.9035
    -0.8893  -0.8565  -0.8490  -0.8420  -0.8113  -0.8041  -0.7953  -0.7937
    -0.7872  -0.7866  -0.7843  -0.7784  -0.7723  -0.7607  -0.7474  -0.7455
    -0.7426  -0.7407  -0.7340  -0.7033  -0.7030  -0.6947  -0.6876  -0.6738
    -0.6694  -0.6597  -0.6526  -0.6014  -0.5982  -0.5917  -0.5912  -0.5897
    -0.5869  -0.5788  -0.5647  -0.5597  -0.5560  -0.5546  -0.5535  -0.5426
    -0.5138  -0.5117  -0.5102  -0.5028  -0.5010  -0.4966  -0.4960  -0.4825
    -0.4772  -0.4764  -0.4550  -0.4340  -0.4330  -0.4254  -0.4215  -0.4193
    -0.3453  -0.3430  -0.3412  -0.3389  -0.3320  -0.3277  -0.2949  -0.2828
    -0.2820  -0.2543  -0.2504  -0.2272  -0.1290  -0.1271  -0.0263   0.3889
     0.3892   0.3924   0.3931   0.4516   0.4648   0.8402   0.8427   0.8838
     0.8848   0.9982   1.0768   1.1841   1.1918   1.4044   1.4206   2.0367
     2.0429   2.1990   2.2047   2.3309   2.3424   2.4381   2.4384   2.5925
     2.8290   2.8342   2.9550   3.1769   3.1827   3.2595   3.2615   3.3600
     3.3775   3.5690   3.5762   3.6320   3.8341   3.8354   3.8952   3.9005
     4.1537   4.1588   4.1676   4.4044   4.4426   4.4485   4.4920   4.8256
     4.8291   4.8573   4.9909   5.1604   5.1658   5.1981   5.2218   5.4109
     5.7813   5.9194   5.9491   5.9570   5.9617   6.0253   6.0276   6.0929
     6.1242   6.1433   6.1618   6.1879   6.1915   6.2080   6.2241   6.2468
     6.2570   6.4267   6.5606   6.7001   6.7457   6.7661   6.8960   6.8998
     6.9088   7.0097   7.0183

          k = 0.2500-0.1443 0.1111 (136898 PWs)   bands (ev):

   -19.0459  -6.8958  -6.5338  -5.7425  -5.4520  -5.3925  -5.3921  -4.8541
    -4.8538  -4.7229  -4.7218  -4.5673  -4.5384  -4.4743  -4.4419  -4.4409
    -4.4072  -4.4072  -4.2786  -4.2371  -4.2365  -4.1772  -4.1564  -4.1561
    -4.0535  -4.0534  -4.0172  -4.0170  -4.0169  -3.9906  -3.9685  -3.9684
    -3.8654  -3.8617  -3.8610  -3.8412  -3.8239  -3.8237  -3.8122  -3.8115
    -3.7992  -3.7684  -3.7682  -3.7674  -3.7673  -3.7359  -3.7353  -3.7172
    -3.7171  -3.7056  -3.6625  -3.6616  -3.6297  -3.6163  -3.6144  -3.6087
    -3.6084  -3.5343  -3.5341  -3.5006  -3.4977  -3.4969  -3.4287  -3.4286
    -3.4134  -3.4132  -3.3838  -3.3830  -3.3820  -3.3814  -3.2281  -3.2274
    -3.2151  -3.2032  -3.1983  -3.1818  -3.1810  -3.1568  -3.1554  -3.1126
    -3.1052  -3.1015  -3.0890  -3.0865  -3.0678  -3.0208  -3.0162  -3.0005
    -2.9957  -2.9944  -2.9548  -2.9537  -2.9471  -2.9455  -2.9312  -2.9301
    -2.8920  -2.8917  -2.8698  -2.8683  -2.8667  -2.8656  -2.8623  -2.7872
    -2.7861  -2.7844  -2.7556  -2.7549  -2.6940  -2.6918  -2.6653  -2.6643
    -2.6516  -2.6509  -2.6447  -2.6159  -2.6152  -2.6055  -2.5889  -2.5647
    -2.5634  -2.5621  -2.5421  -2.5416  -2.5308  -2.5301  -2.5288  -2.5265
    -2.5175  -2.4718  -2.4406  -2.4400  -2.4247  -2.4110  -2.4049  -2.4043
    -2.3971  -2.3962  -2.3940  -2.3660  -2.3649  -2.3640  -2.3555  -2.3543
    -2.3384  -2.3124  -2.3102  -2.3101  -2.3088  -2.3083  -2.2621  -2.2333
    -2.2312  -2.2305  -2.2245  -2.2145  -2.2035  -2.2029  -2.1852  -2.1849
    -2.1548  -2.1508  -2.1502  -2.1326  -2.1318  -2.1302  -2.0992  -2.0973
    -2.0588  -2.0540  -2.0495  -2.0469  -2.0463  -2.0409  -2.0401  -2.0381
    -2.0367  -2.0337  -2.0297  -2.0154  -2.0130  -1.8893  -1.8856  -1.8629
    -1.8498  -1.8471  -1.8416  -1.8405  -1.8292  -1.8238  -1.8223  -1.8209
    -1.8193  -1.7961  -1.7954  -1.7892  -1.7879  -1.7779  -1.7752  -1.7535
    -1.7527  -1.7243  -1.7235  -1.6949  -1.6925  -1.6816  -1.6748  -1.6585
    -1.6553  -1.6521  -1.6346  -1.6231  -1.6209  -1.6150  -1.6139  -1.5896
    -1.5876  -1.5733  -1.5704  -1.5502  -1.5380  -1.5296  -1.4888  -1.4777
    -1.4767  -1.4643  -1.4635  -1.4376  -1.4359  -1.4105  -1.4030  -1.4016
    -1.3850  -1.3608  -1.3581  -1.3425  -1.3411  -1.3240  -1.3170  -1.3139
    -1.2847  -1.2824  -1.2815  -1.2468  -1.2190  -1.2178  -1.2063  -1.2013
    -1.1891  -1.1876  -1.1760  -1.1742  -1.1576  -1.1450  -1.1167  -1.1146
    -1.1032  -1.0728  -1.0674  -1.0610  -1.0547  -1.0543  -1.0521  -1.0486
    -1.0344  -1.0331  -1.0051  -1.0040  -0.9939  -0.9908  -0.9898  -0.9717
    -0.9678  -0.9490  -0.9351  -0.9271  -0.8948  -0.8325  -0.8212  -0.8156
    -0.8151  -0.8112  -0.8059  -0.7983  -0.7814  -0.7729  -0.7652  -0.7573
    -0.7505  -0.7439  -0.7416  -0.7212  -0.7198  -0.7111  -0.7089  -0.6377
    -0.6368  -0.6047  -0.5997  -0.5985  -0.5930  -0.5900  -0.5897  -0.5857
    -0.5777  -0.5704  -0.5492  -0.5349  -0.5160  -0.5022  -0.5010  -0.4907
    -0.4863  -0.4778  -0.4773  -0.4756  -0.4743  -0.4656  -0.4574  -0.4529
    -0.4456  -0.4222  -0.4203  -0.4146  -0.4073  -0.4054  -0.3881  -0.3565
    -0.3541  -0.3471  -0.3422  -0.2783  -0.2774  -0.2423  -0.2420  -0.1839
    -0.1834  -0.1830  -0.1607  -0.1566   0.0676   0.0892   0.4177   0.4178
     0.5054   0.5218   0.7034   0.7300   0.7350   0.8638   0.8677   1.2977
     1.2983   1.3152   1.5766   1.6078   1.6083   1.8792   1.8968   1.9622
     1.9638   1.9872   1.9995   2.2184   2.2199   2.3088   2.3096   2.3801
     2.4433   2.4611   2.6119   2.7120   3.1475   3.1500   3.1542   3.1582
     3.2063   3.2102   3.5011   3.5025   3.7777   3.7908   3.8854   4.1978
     4.2360   4.2443   4.4359   4.4770   4.5394   4.5426   4.6330   4.7490
     4.7546   4.8672   4.8707   5.1707   5.2354   5.2427   5.2771   5.4176
     5.4368   5.6245   5.6301   5.6546   5.6575   5.7106   5.7216   5.7578
     5.8311   6.0467   6.2595   6.3191   6.3460   6.4577   6.4604   6.4722
     6.4795   6.5333   6.6444   6.7088   6.7185   6.8166   6.9106   6.9214
     6.9633   7.0345   7.0651

          k =-0.2500-0.4330 0.1111 (136853 PWs)   bands (ev):

   -19.0459  -6.8955  -6.3243  -5.9255  -5.9249  -5.2482  -4.9141  -4.9138
    -4.8764  -4.8746  -4.5138  -4.5134  -4.4150  -4.4149  -4.4010  -4.3787
    -4.3569  -4.2479  -4.2469  -4.2232  -4.1800  -4.1794  -4.1112  -4.1108
    -4.1049  -4.1041  -4.0826  -4.0775  -4.0762  -4.0085  -4.0046  -3.9747
    -3.9739  -3.9622  -3.9620  -3.9389  -3.9388  -3.9161  -3.9080  -3.9078
    -3.8816  -3.8292  -3.8289  -3.7812  -3.7802  -3.7232  -3.7225  -3.6679
    -3.6673  -3.6666  -3.6666  -3.6309  -3.5942  -3.5936  -3.5859  -3.5841
    -3.5838  -3.5553  -3.5536  -3.5454  -3.4847  -3.4843  -3.4763  -3.4571
    -3.4498  -3.3783  -3.3774  -3.3466  -3.3441  -3.3181  -3.3161  -3.3021
    -3.2860  -3.2277  -3.2263  -3.2093  -3.2080  -3.1698  -3.1565  -3.1523
    -3.1190  -3.1069  -3.0819  -3.0801  -3.0727  -3.0720  -3.0603  -3.0557
    -3.0522  -3.0449  -3.0365  -3.0003  -2.9631  -2.9622  -2.9485  -2.9474
    -2.9211  -2.9131  -2.9123  -2.8916  -2.8456  -2.8452  -2.8373  -2.7979
    -2.7910  -2.7794  -2.7791  -2.7515  -2.7499  -2.7200  -2.6836  -2.6822
    -2.6620  -2.6531  -2.6396  -2.6388  -2.5898  -2.5892  -2.5561  -2.5334
    -2.5328  -2.5102  -2.5089  -2.4978  -2.4971  -2.4869  -2.4651  -2.4646
    -2.4196  -2.4189  -2.4177  -2.4019  -2.4012  -2.3945  -2.3869  -2.3847
    -2.3844  -2.3831  -2.3767  -2.3669  -2.3650  -2.3571  -2.3295  -2.3284
    -2.3275  -2.3255  -2.3248  -2.3222  -2.3218  -2.2953  -2.2923  -2.2781
    -2.2774  -2.2594  -2.2587  -2.2508  -2.2489  -2.2484  -2.2470  -2.2301
    -2.2272  -2.2265  -2.2252  -2.2101  -2.1825  -2.1817  -2.1409  -2.1406
    -2.1171  -2.1167  -2.0901  -2.0885  -2.0631  -2.0610  -2.0444  -2.0398
    -2.0118  -1.9966  -1.9916  -1.9878  -1.9840  -1.9808  -1.9743  -1.9720
    -1.9481  -1.9405  -1.9330  -1.8738  -1.8715  -1.8687  -1.8666  -1.8659
    -1.8311  -1.8098  -1.8092  -1.7838  -1.7819  -1.7229  -1.7225  -1.6949
    -1.6806  -1.6735  -1.6144  -1.6130  -1.6030  -1.6003  -1.5902  -1.5888
    -1.5852  -1.5772  -1.5757  -1.5367  -1.5222  -1.5107  -1.5079  -1.5070
    -1.4913  -1.4883  -1.4582  -1.4527  -1.4441  -1.4354  -1.4350  -1.4294
    -1.4271  -1.4147  -1.4128  -1.3954  -1.3932  -1.3756  -1.3543  -1.3418
    -1.3403  -1.3210  -1.3058  -1.2840  -1.2643  -1.2546  -1.2349  -1.2323
    -1.2221  -1.2017  -1.1521  -1.1505  -1.1491  -1.1459  -1.1434  -1.1355
    -1.1220  -1.1158  -1.1014  -1.0752  -1.0726  -1.0439  -1.0430  -1.0377
    -1.0355  -1.0310  -1.0146  -1.0132  -1.0125  -1.0095  -1.0050  -0.9718
    -0.9698  -0.9690  -0.9593  -0.9398  -0.9355  -0.9307  -0.9074  -0.9035
    -0.8893  -0.8565  -0.8490  -0.8420  -0.8113  -0.8041  -0.7953  -0.7937
    -0.7872  -0.7866  -0.7843  -0.7784  -0.7723  -0.7607  -0.7474  -0.7455
    -0.7426  -0.7407  -0.7340  -0.7033  -0.7030  -0.6947  -0.6876  -0.6738
    -0.6694  -0.6597  -0.6526  -0.6014  -0.5982  -0.5917  -0.5912  -0.5897
    -0.5869  -0.5788  -0.5647  -0.5597  -0.5560  -0.5546  -0.5535  -0.5426
    -0.5138  -0.5117  -0.5102  -0.5028  -0.5010  -0.4966  -0.4960  -0.4825
    -0.4772  -0.4764  -0.4550  -0.4340  -0.4330  -0.4254  -0.4215  -0.4193
    -0.3453  -0.3430  -0.3412  -0.3389  -0.3320  -0.3277  -0.2949  -0.2828
    -0.2820  -0.2543  -0.2504  -0.2272  -0.1290  -0.1271  -0.0263   0.3889
     0.3892   0.3924   0.3931   0.4516   0.4648   0.8402   0.8427   0.8838
     0.8848   0.9982   1.0768   1.1841   1.1918   1.4044   1.4206   2.0367
     2.0429   2.1990   2.2047   2.3309   2.3424   2.4381   2.4384   2.5925
     2.8290   2.8342   2.9550   3.1769   3.1827   3.2595   3.2615   3.3600
     3.3775   3.5690   3.5762   3.6320   3.8341   3.8354   3.8952   3.9005
     4.1537   4.1588   4.1676   4.4044   4.4426   4.4485   4.4920   4.8256
     4.8291   4.8573   4.9909   5.1604   5.1658   5.1981   5.2218   5.4110
     5.7806   5.9194   5.9491   5.9570   5.9617   6.0253   6.0276   6.0925
     6.1255   6.1457   6.1619   6.1879   6.1916   6.2081   6.2229   6.2469
     6.2569   6.4267   6.5617   6.6895   6.7462   6.7659   6.8957   6.8996
     6.9085   7.0171   7.0252

          k =-0.2500 0.4330-0.1111 (136853 PWs)   bands (ev):

   -19.0459  -6.8955  -6.3243  -5.9267  -5.9237  -5.2482  -4.9146  -4.9134
    -4.8776  -4.8734  -4.5142  -4.5130  -4.4154  -4.4146  -4.4008  -4.3787
    -4.3569  -4.2482  -4.2468  -4.2232  -4.1801  -4.1794  -4.1112  -4.1106
    -4.1049  -4.1043  -4.0826  -4.0785  -4.0752  -4.0096  -4.0036  -3.9751
    -3.9734  -3.9623  -3.9619  -3.9389  -3.9386  -3.9162  -3.9080  -3.9078
    -3.8818  -3.8294  -3.8288  -3.7818  -3.7797  -3.7231  -3.7225  -3.6681
    -3.6672  -3.6666  -3.6664  -3.6311  -3.5947  -3.5937  -3.5856  -3.5845
    -3.5837  -3.5555  -3.5534  -3.5453  -3.4848  -3.4844  -3.4757  -3.4570
    -3.4495  -3.3787  -3.3774  -3.3464  -3.3435  -3.3176  -3.3158  -3.3020
    -3.2860  -3.2291  -3.2263  -3.2087  -3.2082  -3.1720  -3.1552  -3.1520
    -3.1182  -3.1082  -3.0823  -3.0775  -3.0728  -3.0705  -3.0601  -3.0564
    -3.0519  -3.0451  -3.0381  -3.0004  -2.9638  -2.9616  -2.9486  -2.9476
    -2.9214  -2.9132  -2.9120  -2.8916  -2.8462  -2.8445  -2.8369  -2.7979
    -2.7909  -2.7795  -2.7788  -2.7512  -2.7494  -2.7201  -2.6840  -2.6818
    -2.6621  -2.6531  -2.6402  -2.6390  -2.5896  -2.5892  -2.5559  -2.5339
    -2.5328  -2.5102  -2.5088  -2.4979  -2.4969  -2.4870  -2.4653  -2.4643
    -2.4196  -2.4185  -2.4178  -2.4020  -2.4011  -2.3947  -2.3871  -2.3848
    -2.3846  -2.3833  -2.3767  -2.3663  -2.3650  -2.3588  -2.3298  -2.3286
    -2.3268  -2.3258  -2.3249  -2.3226  -2.3211  -2.2952  -2.2923  -2.2782
    -2.2769  -2.2592  -2.2589  -2.2502  -2.2490  -2.2482  -2.2468  -2.2307
    -2.2280  -2.2269  -2.2242  -2.2101  -2.1827  -2.1818  -2.1414  -2.1403
    -2.1173  -2.1164  -2.0907  -2.0881  -2.0624  -2.0605  -2.0441  -2.0396
    -2.0117  -1.9938  -1.9911  -1.9874  -1.9843  -1.9804  -1.9739  -1.9716
    -1.9482  -1.9413  -1.9327  -1.8762  -1.8720  -1.8692  -1.8668  -1.8658
    -1.8318  -1.8108  -1.8082  -1.7848  -1.7820  -1.7235  -1.7216  -1.6958
    -1.6788  -1.6736  -1.6130  -1.6128  -1.6027  -1.6005  -1.5901  -1.5893
    -1.5857  -1.5783  -1.5756  -1.5411  -1.5223  -1.5120  -1.5087  -1.5073
    -1.4912  -1.4887  -1.4562  -1.4530  -1.4396  -1.4361  -1.4344  -1.4308
    -1.4267  -1.4156  -1.4133  -1.3948  -1.3929  -1.3767  -1.3550  -1.3441
    -1.3400  -1.3213  -1.3056  -1.2733  -1.2642  -1.2574  -1.2333  -1.2324
    -1.2217  -1.2025  -1.1521  -1.1506  -1.1491  -1.1464  -1.1433  -1.1344
    -1.1236  -1.1162  -1.1070  -1.0745  -1.0723  -1.0441  -1.0418  -1.0379
    -1.0350  -1.0305  -1.0145  -1.0129  -1.0121  -1.0088  -1.0068  -0.9730
    -0.9696  -0.9688  -0.9586  -0.9399  -0.9372  -0.9297  -0.9081  -0.9030
    -0.8888  -0.8564  -0.8492  -0.8394  -0.8119  -0.8033  -0.7943  -0.7936
    -0.7874  -0.7864  -0.7843  -0.7777  -0.7722  -0.7617  -0.7472  -0.7456
    -0.7424  -0.7407  -0.7350  -0.7033  -0.7029  -0.6952  -0.6862  -0.6736
    -0.6695  -0.6610  -0.6538  -0.6014  -0.5983  -0.5917  -0.5911  -0.5894
    -0.5864  -0.5793  -0.5646  -0.5603  -0.5561  -0.5545  -0.5538  -0.5417
    -0.5132  -0.5122  -0.5105  -0.5033  -0.5006  -0.4964  -0.4954  -0.4821
    -0.4770  -0.4765  -0.4572  -0.4346  -0.4321  -0.4257  -0.4220  -0.4172
    -0.3457  -0.3427  -0.3412  -0.3387  -0.3322  -0.3283  -0.2949  -0.2829
    -0.2822  -0.2560  -0.2503  -0.2252  -0.1313  -0.1245  -0.0263   0.3890
     0.3893   0.3922   0.3931   0.4498   0.4672   0.8392   0.8433   0.8828
     0.8859   0.9991   1.0763   1.1812   1.1941   1.4007   1.4234   2.0360
     2.0442   2.1965   2.2078   2.3286   2.3448   2.4379   2.4387   2.5922
     2.8271   2.8367   2.9540   3.1728   3.1851   3.2595   3.2628   3.3594
     3.3775   3.5575   3.5855   3.6344   3.8335   3.8360   3.8956   3.9022
     4.1530   4.1562   4.1694   4.4053   4.4424   4.4478   4.4924   4.8236
     4.8320   4.8539   4.9922   5.1625   5.1664   5.1870   5.2308   5.4125
     5.7898   5.9111   5.9512   5.9528   5.9649   6.0233   6.0296   6.0962
     6.1202   6.1525   6.1608   6.1874   6.1939   6.2023   6.2292   6.2479
     6.2548   6.4291   6.5465   6.6945   6.7425   6.7651   6.8924   6.9014
     6.9081   7.0132   7.0402

          k = 0.2500-0.4330-0.1111 (136853 PWs)   bands (ev):

   -19.0459  -6.8955  -6.3243  -5.9267  -5.9237  -5.2482  -4.9146  -4.9134
    -4.8776  -4.8734  -4.5142  -4.5130  -4.4154  -4.4146  -4.4008  -4.3787
    -4.3569  -4.2482  -4.2468  -4.2232  -4.1801  -4.1794  -4.1112  -4.1106
    -4.1049  -4.1043  -4.0826  -4.0785  -4.0752  -4.0096  -4.0036  -3.9751
    -3.9734  -3.9623  -3.9619  -3.9389  -3.9386  -3.9162  -3.9080  -3.9078
    -3.8818  -3.8294  -3.8288  -3.7818  -3.7797  -3.7231  -3.7225  -3.6681
    -3.6672  -3.6666  -3.6664  -3.6311  -3.5947  -3.5937  -3.5856  -3.5845
    -3.5837  -3.5555  -3.5534  -3.5453  -3.4848  -3.4844  -3.4757  -3.4570
    -3.4495  -3.3787  -3.3774  -3.3464  -3.3435  -3.3176  -3.3158  -3.3020
    -3.2860  -3.2291  -3.2263  -3.2087  -3.2082  -3.1720  -3.1552  -3.1520
    -3.1182  -3.1082  -3.0823  -3.0775  -3.0728  -3.0705  -3.0601  -3.0564
    -3.0519  -3.0451  -3.0381  -3.0004  -2.9638  -2.9616  -2.9485  -2.9476
    -2.9214  -2.9132  -2.9120  -2.8916  -2.8462  -2.8445  -2.8369  -2.7979
    -2.7909  -2.7795  -2.7788  -2.7512  -2.7494  -2.7201  -2.6840  -2.6818
    -2.6621  -2.6531  -2.6402  -2.6390  -2.5896  -2.5892  -2.5559  -2.5339
    -2.5328  -2.5102  -2.5088  -2.4979  -2.4969  -2.4870  -2.4653  -2.4643
    -2.4196  -2.4185  -2.4178  -2.4020  -2.4011  -2.3947  -2.3871  -2.3848
    -2.3846  -2.3833  -2.3767  -2.3663  -2.3650  -2.3588  -2.3298  -2.3286
    -2.3268  -2.3258  -2.3249  -2.3226  -2.3211  -2.2952  -2.2923  -2.2782
    -2.2769  -2.2592  -2.2589  -2.2502  -2.2490  -2.2482  -2.2468  -2.2307
    -2.2280  -2.2269  -2.2242  -2.2101  -2.1827  -2.1818  -2.1414  -2.1403
    -2.1173  -2.1164  -2.0907  -2.0881  -2.0624  -2.0605  -2.0441  -2.0396
    -2.0117  -1.9938  -1.9911  -1.9874  -1.9842  -1.9804  -1.9739  -1.9716
    -1.9482  -1.9413  -1.9327  -1.8762  -1.8720  -1.8692  -1.8668  -1.8658
    -1.8318  -1.8108  -1.8082  -1.7848  -1.7820  -1.7235  -1.7216  -1.6958
    -1.6788  -1.6736  -1.6130  -1.6128  -1.6027  -1.6005  -1.5901  -1.5893
    -1.5857  -1.5783  -1.5756  -1.5411  -1.5223  -1.5120  -1.5087  -1.5073
    -1.4912  -1.4887  -1.4562  -1.4530  -1.4396  -1.4361  -1.4344  -1.4308
    -1.4267  -1.4156  -1.4133  -1.3948  -1.3929  -1.3767  -1.3550  -1.3441
    -1.3400  -1.3213  -1.3056  -1.2733  -1.2642  -1.2574  -1.2333  -1.2324
    -1.2217  -1.2025  -1.1521  -1.1506  -1.1491  -1.1464  -1.1433  -1.1344
    -1.1236  -1.1162  -1.1070  -1.0745  -1.0723  -1.0441  -1.0418  -1.0379
    -1.0350  -1.0305  -1.0145  -1.0129  -1.0121  -1.0088  -1.0068  -0.9730
    -0.9696  -0.9688  -0.9586  -0.9399  -0.9372  -0.9297  -0.9081  -0.9030
    -0.8888  -0.8564  -0.8492  -0.8394  -0.8119  -0.8033  -0.7943  -0.7936
    -0.7874  -0.7864  -0.7843  -0.7777  -0.7722  -0.7617  -0.7472  -0.7456
    -0.7424  -0.7407  -0.7350  -0.7033  -0.7029  -0.6952  -0.6862  -0.6736
    -0.6695  -0.6610  -0.6538  -0.6014  -0.5983  -0.5917  -0.5911  -0.5894
    -0.5864  -0.5793  -0.5646  -0.5603  -0.5561  -0.5545  -0.5538  -0.5417
    -0.5132  -0.5122  -0.5105  -0.5033  -0.5006  -0.4964  -0.4954  -0.4821
    -0.4770  -0.4765  -0.4572  -0.4346  -0.4321  -0.4257  -0.4220  -0.4172
    -0.3457  -0.3427  -0.3412  -0.3387  -0.3322  -0.3283  -0.2949  -0.2829
    -0.2822  -0.2560  -0.2503  -0.2252  -0.1313  -0.1245  -0.0263   0.3890
     0.3893   0.3922   0.3931   0.4498   0.4672   0.8392   0.8433   0.8828
     0.8859   0.9991   1.0763   1.1812   1.1941   1.4007   1.4234   2.0360
     2.0442   2.1965   2.2078   2.3286   2.3448   2.4379   2.4387   2.5922
     2.8271   2.8367   2.9540   3.1728   3.1851   3.2595   3.2628   3.3594
     3.3775   3.5575   3.5855   3.6344   3.8335   3.8360   3.8956   3.9022
     4.1530   4.1562   4.1694   4.4053   4.4424   4.4478   4.4924   4.8236
     4.8320   4.8539   4.9922   5.1625   5.1664   5.1870   5.2308   5.4124
     5.7898   5.9113   5.9512   5.9528   5.9649   6.0233   6.0297   6.0965
     6.1202   6.1503   6.1608   6.1872   6.1934   6.2023   6.2299   6.2479
     6.2549   6.4299   6.5457   6.6980   6.7498   6.7640   6.8928   6.9015
     6.9089   7.0143   7.0210

          k = 0.5000 0.0000 0.1111 (136853 PWs)   bands (ev):

   -19.0459  -6.8955  -6.3243  -5.9269  -5.9236  -5.2482  -4.9151  -4.9129
    -4.8782  -4.8728  -4.5146  -4.5126  -4.4152  -4.4149  -4.4007  -4.3787
    -4.3568  -4.2481  -4.2469  -4.2233  -4.1801  -4.1794  -4.1113  -4.1104
    -4.1054  -4.1040  -4.0826  -4.0790  -4.0747  -4.0105  -4.0027  -3.9756
    -3.9729  -3.9624  -3.9617  -3.9388  -3.9387  -3.9162  -3.9080  -3.9077
    -3.8818  -3.8294  -3.8289  -3.7821  -3.7793  -3.7231  -3.7225  -3.6679
    -3.6672  -3.6666  -3.6664  -3.6311  -3.5945  -3.5938  -3.5856  -3.5844
    -3.5838  -3.5554  -3.5531  -3.5456  -3.4848  -3.4842  -3.4760  -3.4569
    -3.4495  -3.3793  -3.3775  -3.3463  -3.3439  -3.3173  -3.3156  -3.3020
    -3.2857  -3.2286  -3.2262  -3.2092  -3.2076  -3.1748  -3.1543  -3.1521
    -3.1158  -3.1116  -3.0811  -3.0784  -3.0729  -3.0679  -3.0604  -3.0564
    -3.0521  -3.0444  -3.0393  -3.0009  -2.9636  -2.9616  -2.9486  -2.9480
    -2.9216  -2.9134  -2.9121  -2.8914  -2.8467  -2.8441  -2.8356  -2.7980
    -2.7910  -2.7798  -2.7785  -2.7509  -2.7480  -2.7202  -2.6840  -2.6825
    -2.6620  -2.6531  -2.6409  -2.6393  -2.5902  -2.5883  -2.5557  -2.5338
    -2.5334  -2.5101  -2.5085  -2.4977  -2.4971  -2.4871  -2.4651  -2.4642
    -2.4202  -2.4183  -2.4176  -2.4020  -2.4011  -2.3946  -2.3870  -2.3853
    -2.3842  -2.3831  -2.3767  -2.3668  -2.3644  -2.3600  -2.3297  -2.3285
    -2.3269  -2.3265  -2.3251  -2.3232  -2.3204  -2.2948  -2.2923  -2.2776
    -2.2769  -2.2591  -2.2588  -2.2496  -2.2494  -2.2488  -2.2459  -2.2312
    -2.2287  -2.2264  -2.2235  -2.2103  -2.1827  -2.1818  -2.1415  -2.1401
    -2.1174  -2.1165  -2.0904  -2.0890  -2.0618  -2.0602  -2.0438  -2.0396
    -2.0120  -1.9944  -1.9903  -1.9867  -1.9840  -1.9802  -1.9738  -1.9719
    -1.9491  -1.9408  -1.9328  -1.8764  -1.8729  -1.8692  -1.8672  -1.8648
    -1.8327  -1.8108  -1.8082  -1.7851  -1.7817  -1.7237  -1.7214  -1.6961
    -1.6783  -1.6736  -1.6138  -1.6119  -1.6038  -1.5997  -1.5908  -1.5885
    -1.5857  -1.5785  -1.5753  -1.5414  -1.5197  -1.5139  -1.5081  -1.5071
    -1.4917  -1.4868  -1.4573  -1.4530  -1.4400  -1.4358  -1.4349  -1.4312
    -1.4270  -1.4162  -1.4127  -1.3944  -1.3936  -1.3772  -1.3536  -1.3423
    -1.3391  -1.3208  -1.3057  -1.2782  -1.2633  -1.2580  -1.2346  -1.2325
    -1.2196  -1.2024  -1.1523  -1.1510  -1.1491  -1.1463  -1.1427  -1.1355
    -1.1240  -1.1155  -1.1059  -1.0765  -1.0711  -1.0435  -1.0427  -1.0372
    -1.0357  -1.0307  -1.0151  -1.0129  -1.0116  -1.0095  -1.0050  -0.9721
    -0.9698  -0.9685  -0.9599  -0.9391  -0.9344  -0.9312  -0.9089  -0.9015
    -0.8911  -0.8559  -0.8491  -0.8396  -0.8118  -0.8031  -0.7955  -0.7935
    -0.7871  -0.7867  -0.7839  -0.7783  -0.7727  -0.7608  -0.7478  -0.7446
    -0.7425  -0.7414  -0.7342  -0.7036  -0.7026  -0.6939  -0.6880  -0.6744
    -0.6694  -0.6603  -0.6533  -0.6012  -0.5987  -0.5917  -0.5906  -0.5893
    -0.5866  -0.5799  -0.5645  -0.5601  -0.5559  -0.5551  -0.5530  -0.5422
    -0.5139  -0.5115  -0.5105  -0.5027  -0.5007  -0.4965  -0.4958  -0.4829
    -0.4776  -0.4761  -0.4560  -0.4342  -0.4327  -0.4257  -0.4209  -0.4189
    -0.3449  -0.3435  -0.3411  -0.3390  -0.3317  -0.3283  -0.2948  -0.2829
    -0.2821  -0.2541  -0.2504  -0.2275  -0.1290  -0.1264  -0.0261   0.3889
     0.3895   0.3920   0.3931   0.4516   0.4649   0.8397   0.8432   0.8835
     0.8850   0.9987   1.0766   1.1823   1.1934   1.4015   1.4231   2.0367
     2.0433   2.1978   2.2060   2.3295   2.3437   2.4374   2.4391   2.5923
     2.8280   2.8362   2.9544   3.1733   3.1854   3.2592   3.2625   3.3596
     3.3775   3.5544   3.5896   3.6324   3.8337   3.8359   3.8954   3.9022
     4.1518   4.1581   4.1689   4.4050   4.4419   4.4489   4.4919   4.8258
     4.8288   4.8557   4.9921   5.1587   5.1658   5.1753   5.2413   5.4310
     5.7594   5.9403   5.9492   5.9574   5.9613   6.0251   6.0267   6.0967
     6.1109   6.1360   6.1627   6.1864   6.1931   6.2025   6.2256   6.2474
     6.2609   6.4199   6.5749   6.6871   6.7381   6.7947   6.8927   6.9009
     6.9079   7.0035   7.0213

          k =-0.5000 0.0000 0.1111 (136853 PWs)   bands (ev):

   -19.0459  -6.8955  -6.3243  -5.9269  -5.9236  -5.2482  -4.9151  -4.9129
    -4.8782  -4.8728  -4.5146  -4.5126  -4.4152  -4.4149  -4.4007  -4.3787
    -4.3568  -4.2481  -4.2469  -4.2233  -4.1801  -4.1794  -4.1113  -4.1104
    -4.1054  -4.1040  -4.0826  -4.0790  -4.0747  -4.0105  -4.0027  -3.9756
    -3.9729  -3.9624  -3.9617  -3.9388  -3.9387  -3.9162  -3.9080  -3.9077
    -3.8818  -3.8294  -3.8289  -3.7821  -3.7793  -3.7231  -3.7225  -3.6679
    -3.6672  -3.6666  -3.6664  -3.6311  -3.5945  -3.5938  -3.5856  -3.5844
    -3.5838  -3.5554  -3.5531  -3.5456  -3.4848  -3.4842  -3.4760  -3.4569
    -3.4495  -3.3793  -3.3775  -3.3463  -3.3439  -3.3173  -3.3156  -3.3020
    -3.2857  -3.2286  -3.2262  -3.2092  -3.2076  -3.1748  -3.1543  -3.1521
    -3.1158  -3.1116  -3.0811  -3.0784  -3.0729  -3.0679  -3.0604  -3.0564
    -3.0521  -3.0444  -3.0393  -3.0009  -2.9636  -2.9616  -2.9486  -2.9480
    -2.9216  -2.9134  -2.9121  -2.8914  -2.8467  -2.8441  -2.8356  -2.7980
    -2.7910  -2.7798  -2.7785  -2.7509  -2.7480  -2.7202  -2.6840  -2.6825
    -2.6620  -2.6531  -2.6409  -2.6393  -2.5902  -2.5883  -2.5557  -2.5338
    -2.5334  -2.5101  -2.5085  -2.4977  -2.4971  -2.4871  -2.4651  -2.4642
    -2.4202  -2.4183  -2.4176  -2.4020  -2.4011  -2.3946  -2.3870  -2.3853
    -2.3842  -2.3831  -2.3767  -2.3668  -2.3644  -2.3600  -2.3297  -2.3285
    -2.3269  -2.3265  -2.3251  -2.3232  -2.3204  -2.2948  -2.2923  -2.2776
    -2.2769  -2.2592  -2.2588  -2.2496  -2.2494  -2.2488  -2.2459  -2.2312
    -2.2287  -2.2264  -2.2235  -2.2103  -2.1827  -2.1818  -2.1415  -2.1401
    -2.1174  -2.1165  -2.0904  -2.0890  -2.0618  -2.0602  -2.0438  -2.0396
    -2.0120  -1.9944  -1.9903  -1.9867  -1.9840  -1.9802  -1.9738  -1.9719
    -1.9491  -1.9408  -1.9328  -1.8764  -1.8729  -1.8692  -1.8672  -1.8648
    -1.8327  -1.8108  -1.8082  -1.7851  -1.7817  -1.7237  -1.7214  -1.6961
    -1.6783  -1.6736  -1.6138  -1.6119  -1.6038  -1.5997  -1.5908  -1.5885
    -1.5857  -1.5785  -1.5753  -1.5414  -1.5197  -1.5139  -1.5081  -1.5071
    -1.4917  -1.4868  -1.4573  -1.4530  -1.4400  -1.4358  -1.4349  -1.4312
    -1.4270  -1.4162  -1.4127  -1.3944  -1.3936  -1.3772  -1.3536  -1.3423
    -1.3391  -1.3208  -1.3057  -1.2782  -1.2633  -1.2580  -1.2346  -1.2325
    -1.2196  -1.2024  -1.1523  -1.1510  -1.1491  -1.1463  -1.1427  -1.1355
    -1.1240  -1.1155  -1.1059  -1.0765  -1.0711  -1.0435  -1.0427  -1.0372
    -1.0357  -1.0307  -1.0151  -1.0129  -1.0116  -1.0095  -1.0050  -0.9721
    -0.9698  -0.9685  -0.9599  -0.9391  -0.9344  -0.9312  -0.9089  -0.9015
    -0.8911  -0.8559  -0.8491  -0.8396  -0.8118  -0.8031  -0.7955  -0.7935
    -0.7871  -0.7867  -0.7839  -0.7783  -0.7727  -0.7608  -0.7478  -0.7446
    -0.7425  -0.7414  -0.7342  -0.7036  -0.7026  -0.6939  -0.6880  -0.6744
    -0.6694  -0.6603  -0.6533  -0.6012  -0.5987  -0.5917  -0.5906  -0.5893
    -0.5866  -0.5799  -0.5645  -0.5601  -0.5559  -0.5551  -0.5530  -0.5422
    -0.5139  -0.5115  -0.5105  -0.5027  -0.5007  -0.4965  -0.4958  -0.4829
    -0.4776  -0.4761  -0.4560  -0.4342  -0.4327  -0.4257  -0.4209  -0.4189
    -0.3449  -0.3435  -0.3411  -0.3390  -0.3317  -0.3283  -0.2948  -0.2829
    -0.2821  -0.2541  -0.2504  -0.2275  -0.1290  -0.1264  -0.0261   0.3889
     0.3895   0.3920   0.3931   0.4516   0.4649   0.8397   0.8432   0.8835
     0.8850   0.9987   1.0766   1.1823   1.1934   1.4015   1.4231   2.0367
     2.0433   2.1978   2.2060   2.3295   2.3437   2.4374   2.4391   2.5923
     2.8280   2.8362   2.9544   3.1733   3.1854   3.2592   3.2625   3.3596
     3.3775   3.5544   3.5896   3.6324   3.8337   3.8359   3.8954   3.9022
     4.1518   4.1581   4.1689   4.4050   4.4419   4.4489   4.4919   4.8258
     4.8288   4.8557   4.9921   5.1587   5.1658   5.1753   5.2413   5.4311
     5.7589   5.9404   5.9492   5.9575   5.9613   6.0252   6.0267   6.0969
     6.1122   6.1361   6.1624   6.1862   6.1930   6.2022   6.2255   6.2474
     6.2607   6.4211   6.5748   6.6784   6.7420   6.7978   6.8938   6.9012
     6.9080   7.0128   7.0211

          k =-0.2500 0.1443 0.1111 (136898 PWs)   bands (ev):

   -19.0459  -6.8958  -6.5338  -5.7425  -5.4520  -5.3925  -5.3921  -4.8541
    -4.8538  -4.7229  -4.7218  -4.5673  -4.5384  -4.4743  -4.4419  -4.4409
    -4.4072  -4.4072  -4.2786  -4.2371  -4.2365  -4.1772  -4.1564  -4.1561
    -4.0535  -4.0534  -4.0172  -4.0170  -4.0169  -3.9906  -3.9685  -3.9684
    -3.8654  -3.8617  -3.8610  -3.8412  -3.8239  -3.8237  -3.8122  -3.8115
    -3.7992  -3.7684  -3.7682  -3.7674  -3.7673  -3.7359  -3.7353  -3.7172
    -3.7171  -3.7056  -3.6625  -3.6616  -3.6297  -3.6163  -3.6144  -3.6087
    -3.6084  -3.5343  -3.5341  -3.5006  -3.4977  -3.4969  -3.4287  -3.4286
    -3.4134  -3.4132  -3.3838  -3.3830  -3.3820  -3.3814  -3.2281  -3.2274
    -3.2151  -3.2032  -3.1983  -3.1818  -3.1810  -3.1568  -3.1554  -3.1126
    -3.1052  -3.1015  -3.0890  -3.0865  -3.0678  -3.0208  -3.0162  -3.0005
    -2.9957  -2.9944  -2.9548  -2.9537  -2.9471  -2.9455  -2.9312  -2.9302
    -2.8920  -2.8917  -2.8698  -2.8683  -2.8667  -2.8656  -2.8623  -2.7872
    -2.7861  -2.7844  -2.7556  -2.7549  -2.6940  -2.6918  -2.6653  -2.6643
    -2.6516  -2.6509  -2.6447  -2.6159  -2.6152  -2.6055  -2.5889  -2.5647
    -2.5634  -2.5621  -2.5421  -2.5416  -2.5308  -2.5301  -2.5288  -2.5265
    -2.5175  -2.4718  -2.4405  -2.4400  -2.4247  -2.4110  -2.4049  -2.4043
    -2.3971  -2.3962  -2.3940  -2.3660  -2.3649  -2.3640  -2.3555  -2.3543
    -2.3384  -2.3124  -2.3102  -2.3101  -2.3088  -2.3083  -2.2621  -2.2333
    -2.2312  -2.2305  -2.2245  -2.2145  -2.2035  -2.2029  -2.1852  -2.1849
    -2.1548  -2.1508  -2.1502  -2.1326  -2.1318  -2.1302  -2.0992  -2.0973
    -2.0588  -2.0540  -2.0495  -2.0469  -2.0463  -2.0409  -2.0401  -2.0381
    -2.0368  -2.0337  -2.0297  -2.0154  -2.0130  -1.8893  -1.8856  -1.8629
    -1.8498  -1.8471  -1.8416  -1.8405  -1.8292  -1.8238  -1.8223  -1.8209
    -1.8193  -1.7961  -1.7954  -1.7892  -1.7879  -1.7779  -1.7752  -1.7535
    -1.7527  -1.7243  -1.7235  -1.6949  -1.6925  -1.6817  -1.6748  -1.6585
    -1.6553  -1.6520  -1.6346  -1.6231  -1.6209  -1.6150  -1.6139  -1.5896
    -1.5876  -1.5734  -1.5704  -1.5502  -1.5380  -1.5296  -1.4888  -1.4777
    -1.4767  -1.4643  -1.4635  -1.4376  -1.4359  -1.4105  -1.4030  -1.4016
    -1.3850  -1.3608  -1.3581  -1.3425  -1.3411  -1.3240  -1.3170  -1.3139
    -1.2847  -1.2824  -1.2815  -1.2468  -1.2190  -1.2178  -1.2063  -1.2013
    -1.1891  -1.1876  -1.1760  -1.1742  -1.1576  -1.1450  -1.1167  -1.1146
    -1.1032  -1.0728  -1.0673  -1.0610  -1.0547  -1.0543  -1.0521  -1.0486
    -1.0344  -1.0331  -1.0051  -1.0040  -0.9939  -0.9908  -0.9898  -0.9717
    -0.9678  -0.9490  -0.9351  -0.9271  -0.8948  -0.8325  -0.8212  -0.8156
    -0.8151  -0.8112  -0.8059  -0.7983  -0.7814  -0.7729  -0.7652  -0.7573
    -0.7505  -0.7438  -0.7416  -0.7212  -0.7198  -0.7111  -0.7089  -0.6377
    -0.6368  -0.6047  -0.5997  -0.5985  -0.5930  -0.5900  -0.5897  -0.5857
    -0.5777  -0.5704  -0.5492  -0.5349  -0.5160  -0.5022  -0.5010  -0.4907
    -0.4863  -0.4778  -0.4773  -0.4756  -0.4743  -0.4656  -0.4574  -0.4529
    -0.4456  -0.4222  -0.4203  -0.4146  -0.4073  -0.4054  -0.3881  -0.3565
    -0.3541  -0.3471  -0.3422  -0.2783  -0.2774  -0.2423  -0.2420  -0.1839
    -0.1834  -0.1830  -0.1607  -0.1565   0.0676   0.0892   0.4177   0.4178
     0.5054   0.5218   0.7034   0.7300   0.7350   0.8638   0.8677   1.2977
     1.2983   1.3152   1.5766   1.6078   1.6083   1.8792   1.8968   1.9622
     1.9638   1.9872   1.9995   2.2184   2.2199   2.3088   2.3096   2.3801
     2.4433   2.4611   2.6119   2.7120   3.1475   3.1500   3.1542   3.1582
     3.2063   3.2102   3.5011   3.5025   3.7777   3.7908   3.8854   4.1978
     4.2360   4.2443   4.4359   4.4770   4.5394   4.5426   4.6330   4.7490
     4.7546   4.8672   4.8707   5.1707   5.2354   5.2427   5.2772   5.4178
     5.4367   5.6245   5.6301   5.6546   5.6576   5.7106   5.7216   5.7575
     5.8311   6.0469   6.2601   6.3188   6.3445   6.4573   6.4604   6.4721
     6.4794   6.5376   6.6475   6.7090   6.7182   6.8181   6.9086   6.9207
     6.9646   7.0308   7.0630

          k =-0.2500-0.1443-0.1111 (136898 PWs)   bands (ev):

   -19.0459  -6.8958  -6.5338  -5.7426  -5.4520  -5.3926  -5.3920  -4.8541
    -4.8537  -4.7231  -4.7217  -4.5673  -4.5384  -4.4743  -4.4419  -4.4409
    -4.4075  -4.4068  -4.2786  -4.2372  -4.2365  -4.1771  -4.1565  -4.1561
    -4.0535  -4.0533  -4.0173  -4.0170  -4.0168  -3.9906  -3.9689  -3.9680
    -3.8653  -3.8616  -3.8612  -3.8411  -3.8240  -3.8237  -3.8122  -3.8116
    -3.7990  -3.7685  -3.7682  -3.7674  -3.7672  -3.7360  -3.7354  -3.7172
    -3.7170  -3.7051  -3.6630  -3.6617  -3.6300  -3.6161  -3.6145  -3.6086
    -3.6084  -3.5343  -3.5342  -3.5002  -3.4978  -3.4967  -3.4290  -3.4287
    -3.4134  -3.4131  -3.3838  -3.3828  -3.3824  -3.3819  -3.2283  -3.2274
    -3.2137  -3.2032  -3.1996  -3.1816  -3.1810  -3.1561  -3.1553  -3.1160
    -3.1051  -3.1018  -3.0887  -3.0840  -3.0674  -3.0205  -3.0181  -2.9998
    -2.9956  -2.9944  -2.9546  -2.9539  -2.9472  -2.9461  -2.9313  -2.9294
    -2.8916  -2.8914  -2.8704  -2.8685  -2.8666  -2.8659  -2.8621  -2.7868
    -2.7861  -2.7844  -2.7557  -2.7549  -2.6947  -2.6921  -2.6650  -2.6639
    -2.6513  -2.6508  -2.6447  -2.6161  -2.6151  -2.6055  -2.5885  -2.5643
    -2.5637  -2.5624  -2.5421  -2.5416  -2.5316  -2.5302  -2.5280  -2.5267
    -2.5175  -2.4716  -2.4407  -2.4403  -2.4249  -2.4113  -2.4047  -2.4043
    -2.3970  -2.3964  -2.3942  -2.3663  -2.3647  -2.3641  -2.3549  -2.3545
    -2.3383  -2.3119  -2.3106  -2.3101  -2.3085  -2.3082  -2.2623  -2.2335
    -2.2313  -2.2307  -2.2244  -2.2146  -2.2038  -2.2024  -2.1849  -2.1848
    -2.1547  -2.1506  -2.1503  -2.1326  -2.1320  -2.1306  -2.0992  -2.0974
    -2.0587  -2.0540  -2.0493  -2.0473  -2.0461  -2.0415  -2.0403  -2.0384
    -2.0373  -2.0323  -2.0297  -2.0150  -2.0132  -1.8895  -1.8861  -1.8586
    -1.8498  -1.8471  -1.8419  -1.8403  -1.8305  -1.8247  -1.8218  -1.8206
    -1.8201  -1.7971  -1.7953  -1.7895  -1.7875  -1.7766  -1.7754  -1.7541
    -1.7528  -1.7246  -1.7241  -1.6943  -1.6931  -1.6815  -1.6744  -1.6575
    -1.6550  -1.6517  -1.6347  -1.6231  -1.6211  -1.6147  -1.6138  -1.5887
    -1.5874  -1.5725  -1.5712  -1.5522  -1.5378  -1.5297  -1.4847  -1.4782
    -1.4764  -1.4641  -1.4633  -1.4378  -1.4362  -1.4162  -1.4032  -1.4020
    -1.3813  -1.3612  -1.3575  -1.3423  -1.3409  -1.3297  -1.3166  -1.3140
    -1.2839  -1.2822  -1.2812  -1.2488  -1.2182  -1.2172  -1.2052  -1.2014
    -1.1889  -1.1864  -1.1760  -1.1712  -1.1570  -1.1447  -1.1172  -1.1155
    -1.1031  -1.0725  -1.0667  -1.0606  -1.0548  -1.0546  -1.0514  -1.0484
    -1.0386  -1.0331  -1.0050  -1.0043  -0.9931  -0.9911  -0.9902  -0.9717
    -0.9677  -0.9484  -0.9362  -0.9265  -0.8955  -0.8330  -0.8209  -0.8156
    -0.8151  -0.8096  -0.8059  -0.7985  -0.7813  -0.7725  -0.7645  -0.7606
    -0.7504  -0.7443  -0.7416  -0.7216  -0.7190  -0.7104  -0.7086  -0.6373
    -0.6370  -0.6039  -0.5997  -0.5986  -0.5925  -0.5903  -0.5898  -0.5853
    -0.5778  -0.5704  -0.5484  -0.5348  -0.5185  -0.5018  -0.5010  -0.4906
    -0.4865  -0.4781  -0.4771  -0.4754  -0.4745  -0.4661  -0.4572  -0.4530
    -0.4451  -0.4222  -0.4206  -0.4149  -0.4077  -0.4039  -0.3881  -0.3566
    -0.3541  -0.3470  -0.3437  -0.2796  -0.2754  -0.2424  -0.2419  -0.1840
    -0.1832  -0.1829  -0.1599  -0.1566   0.0693   0.0860   0.4176   0.4177
     0.5074   0.5203   0.7007   0.7271   0.7409   0.8647   0.8671   1.2979
     1.2982   1.3149   1.5779   1.6075   1.6083   1.8819   1.8932   1.9628
     1.9630   1.9895   1.9976   2.2188   2.2197   2.3088   2.3093   2.3808
     2.4453   2.4576   2.6124   2.7131   3.1477   3.1490   3.1540   3.1579
     3.2085   3.2089   3.5015   3.5019   3.7807   3.7884   3.8852   4.1978
     4.2380   4.2426   4.4421   4.4692   4.5378   4.5460   4.6331   4.7479
     4.7555   4.8679   4.8688   5.1705   5.2319   5.2450   5.2795   5.4150
     5.4380   5.6267   5.6297   5.6549   5.6566   5.7153   5.7183   5.7514
     5.8329   6.0384   6.2649   6.3180   6.3557   6.4600   6.4623   6.4734
     6.4757   6.5366   6.6382   6.7089   6.7152   6.8118   6.9134   6.9297
     6.9607   7.0281   7.0713

          k = 0.2500 0.1443-0.1111 (136898 PWs)   bands (ev):

   -19.0459  -6.8958  -6.5338  -5.7426  -5.4520  -5.3926  -5.3920  -4.8541
    -4.8537  -4.7231  -4.7217  -4.5673  -4.5384  -4.4743  -4.4419  -4.4409
    -4.4075  -4.4068  -4.2786  -4.2372  -4.2365  -4.1771  -4.1565  -4.1561
    -4.0535  -4.0533  -4.0173  -4.0170  -4.0168  -3.9906  -3.9689  -3.9680
    -3.8653  -3.8616  -3.8612  -3.8411  -3.8240  -3.8237  -3.8122  -3.8116
    -3.7990  -3.7685  -3.7682  -3.7674  -3.7672  -3.7360  -3.7354  -3.7172
    -3.7170  -3.7051  -3.6630  -3.6617  -3.6300  -3.6161  -3.6145  -3.6086
    -3.6084  -3.5343  -3.5342  -3.5002  -3.4978  -3.4967  -3.4290  -3.4287
    -3.4134  -3.4131  -3.3838  -3.3828  -3.3824  -3.3819  -3.2283  -3.2274
    -3.2137  -3.2032  -3.1996  -3.1816  -3.1810  -3.1561  -3.1553  -3.1160
    -3.1051  -3.1018  -3.0887  -3.0840  -3.0674  -3.0205  -3.0181  -2.9998
    -2.9956  -2.9944  -2.9546  -2.9539  -2.9472  -2.9461  -2.9313  -2.9294
    -2.8917  -2.8914  -2.8704  -2.8685  -2.8666  -2.8659  -2.8621  -2.7868
    -2.7861  -2.7844  -2.7557  -2.7549  -2.6947  -2.6921  -2.6650  -2.6639
    -2.6513  -2.6508  -2.6447  -2.6161  -2.6151  -2.6055  -2.5885  -2.5643
    -2.5637  -2.5624  -2.5421  -2.5416  -2.5316  -2.5302  -2.5280  -2.5267
    -2.5175  -2.4716  -2.4407  -2.4403  -2.4249  -2.4113  -2.4047  -2.4043
    -2.3970  -2.3964  -2.3942  -2.3663  -2.3647  -2.3641  -2.3549  -2.3545
    -2.3383  -2.3119  -2.3106  -2.3101  -2.3085  -2.3082  -2.2623  -2.2335
    -2.2313  -2.2307  -2.2244  -2.2146  -2.2038  -2.2024  -2.1849  -2.1848
    -2.1547  -2.1506  -2.1503  -2.1326  -2.1320  -2.1306  -2.0992  -2.0974
    -2.0587  -2.0540  -2.0493  -2.0473  -2.0461  -2.0415  -2.0403  -2.0384
    -2.0373  -2.0323  -2.0297  -2.0150  -2.0132  -1.8895  -1.8861  -1.8586
    -1.8498  -1.8471  -1.8419  -1.8403  -1.8305  -1.8247  -1.8218  -1.8206
    -1.8201  -1.7971  -1.7953  -1.7895  -1.7875  -1.7766  -1.7754  -1.7541
    -1.7528  -1.7246  -1.7240  -1.6943  -1.6931  -1.6815  -1.6745  -1.6575
    -1.6550  -1.6517  -1.6347  -1.6231  -1.6211  -1.6147  -1.6138  -1.5887
    -1.5874  -1.5725  -1.5712  -1.5522  -1.5378  -1.5297  -1.4847  -1.4782
    -1.4764  -1.4641  -1.4633  -1.4378  -1.4362  -1.4162  -1.4032  -1.4020
    -1.3813  -1.3612  -1.3575  -1.3423  -1.3409  -1.3297  -1.3166  -1.3140
    -1.2839  -1.2822  -1.2812  -1.2488  -1.2182  -1.2172  -1.2052  -1.2014
    -1.1889  -1.1864  -1.1760  -1.1712  -1.1570  -1.1447  -1.1172  -1.1155
    -1.1031  -1.0725  -1.0667  -1.0606  -1.0548  -1.0546  -1.0514  -1.0484
    -1.0386  -1.0331  -1.0050  -1.0043  -0.9931  -0.9911  -0.9902  -0.9717
    -0.9677  -0.9484  -0.9362  -0.9265  -0.8955  -0.8330  -0.8209  -0.8156
    -0.8151  -0.8096  -0.8059  -0.7985  -0.7813  -0.7725  -0.7645  -0.7606
    -0.7504  -0.7443  -0.7416  -0.7216  -0.7190  -0.7104  -0.7086  -0.6373
    -0.6370  -0.6039  -0.5997  -0.5987  -0.5925  -0.5903  -0.5898  -0.5853
    -0.5778  -0.5704  -0.5484  -0.5348  -0.5185  -0.5018  -0.5010  -0.4906
    -0.4865  -0.4782  -0.4771  -0.4754  -0.4745  -0.4661  -0.4572  -0.4530
    -0.4451  -0.4222  -0.4206  -0.4149  -0.4077  -0.4039  -0.3881  -0.3566
    -0.3541  -0.3469  -0.3437  -0.2796  -0.2754  -0.2424  -0.2419  -0.1840
    -0.1832  -0.1829  -0.1599  -0.1566   0.0693   0.0860   0.4176   0.4177
     0.5074   0.5203   0.7007   0.7271   0.7409   0.8647   0.8671   1.2979
     1.2982   1.3149   1.5779   1.6075   1.6083   1.8819   1.8932   1.9628
     1.9630   1.9895   1.9976   2.2188   2.2197   2.3088   2.3093   2.3808
     2.4453   2.4576   2.6124   2.7131   3.1477   3.1489   3.1540   3.1579
     3.2085   3.2089   3.5015   3.5019   3.7807   3.7884   3.8852   4.1978
     4.2380   4.2426   4.4421   4.4692   4.5378   4.5460   4.6331   4.7479
     4.7555   4.8679   4.8688   5.1705   5.2319   5.2450   5.2795   5.4150
     5.4382   5.6267   5.6296   5.6549   5.6566   5.7153   5.7183   5.7519
     5.8307   6.0416   6.2665   6.3176   6.3557   6.4599   6.4625   6.4731
     6.4755   6.5296   6.6366   6.7081   6.7147   6.8163   6.9137   6.9296
     6.9611   7.0308   7.0755

          k = 0.0000-0.2887 0.1111 (136898 PWs)   bands (ev):

   -19.0459  -6.8958  -6.5338  -5.7426  -5.4520  -5.3925  -5.3920  -4.8540
    -4.8537  -4.7230  -4.7219  -4.5674  -4.5384  -4.4744  -4.4415  -4.4412
    -4.4072  -4.4070  -4.2786  -4.2372  -4.2364  -4.1771  -4.1564  -4.1562
    -4.0534  -4.0533  -4.0173  -4.0170  -4.0168  -3.9906  -3.9686  -3.9683
    -3.8656  -3.8617  -3.8610  -3.8412  -3.8240  -3.8238  -3.8120  -3.8116
    -3.7991  -3.7684  -3.7682  -3.7674  -3.7671  -3.7360  -3.7354  -3.7171
    -3.7171  -3.7053  -3.6625  -3.6619  -3.6301  -3.6156  -3.6145  -3.6086
    -3.6084  -3.5344  -3.5341  -3.5004  -3.4976  -3.4969  -3.4291  -3.4287
    -3.4134  -3.4131  -3.3837  -3.3827  -3.3823  -3.3818  -3.2301  -3.2275
    -3.2113  -3.2033  -3.2004  -3.1814  -3.1809  -3.1562  -3.1554  -3.1188
    -3.1052  -3.1017  -3.0889  -3.0791  -3.0672  -3.0209  -3.0198  -2.9997
    -2.9955  -2.9935  -2.9547  -2.9535  -2.9471  -2.9468  -2.9310  -2.9298
    -2.8915  -2.8913  -2.8703  -2.8696  -2.8664  -2.8662  -2.8619  -2.7867
    -2.7854  -2.7842  -2.7554  -2.7551  -2.6950  -2.6934  -2.6650  -2.6632
    -2.6511  -2.6509  -2.6446  -2.6161  -2.6155  -2.6055  -2.5881  -2.5643
    -2.5634  -2.5620  -2.5421  -2.5416  -2.5312  -2.5305  -2.5281  -2.5266
    -2.5175  -2.4717  -2.4406  -2.4405  -2.4250  -2.4113  -2.4049  -2.4042
    -2.3971  -2.3963  -2.3943  -2.3663  -2.3650  -2.3643  -2.3552  -2.3541
    -2.3382  -2.3116  -2.3107  -2.3099  -2.3085  -2.3080  -2.2623  -2.2337
    -2.2310  -2.2307  -2.2244  -2.2146  -2.2048  -2.2022  -2.1850  -2.1848
    -2.1546  -2.1506  -2.1503  -2.1327  -2.1318  -2.1311  -2.0988  -2.0977
    -2.0587  -2.0540  -2.0490  -2.0474  -2.0462  -2.0414  -2.0409  -2.0391
    -2.0368  -2.0319  -2.0305  -2.0143  -2.0129  -1.8888  -1.8871  -1.8559
    -1.8503  -1.8485  -1.8414  -1.8406  -1.8316  -1.8248  -1.8217  -1.8208
    -1.8191  -1.7963  -1.7953  -1.7908  -1.7874  -1.7767  -1.7754  -1.7541
    -1.7533  -1.7250  -1.7244  -1.6939  -1.6926  -1.6816  -1.6736  -1.6573
    -1.6551  -1.6519  -1.6346  -1.6228  -1.6213  -1.6149  -1.6141  -1.5879
    -1.5876  -1.5733  -1.5706  -1.5529  -1.5389  -1.5284  -1.4838  -1.4787
    -1.4764  -1.4645  -1.4640  -1.4379  -1.4360  -1.4154  -1.4031  -1.4017
    -1.3814  -1.3607  -1.3590  -1.3417  -1.3410  -1.3287  -1.3154  -1.3142
    -1.2845  -1.2821  -1.2812  -1.2498  -1.2193  -1.2171  -1.2066  -1.2002
    -1.1891  -1.1853  -1.1759  -1.1702  -1.1573  -1.1448  -1.1173  -1.1155
    -1.1026  -1.0716  -1.0677  -1.0604  -1.0548  -1.0546  -1.0525  -1.0491
    -1.0385  -1.0330  -1.0047  -1.0044  -0.9936  -0.9913  -0.9899  -0.9696
    -0.9670  -0.9498  -0.9358  -0.9268  -0.8958  -0.8317  -0.8211  -0.8156
    -0.8152  -0.8096  -0.8067  -0.7976  -0.7814  -0.7733  -0.7657  -0.7589
    -0.7504  -0.7445  -0.7417  -0.7214  -0.7196  -0.7106  -0.7077  -0.6374
    -0.6367  -0.6045  -0.5993  -0.5984  -0.5927  -0.5904  -0.5898  -0.5856
    -0.5782  -0.5702  -0.5487  -0.5348  -0.5178  -0.5020  -0.5006  -0.4907
    -0.4868  -0.4784  -0.4769  -0.4754  -0.4741  -0.4656  -0.4573  -0.4530
    -0.4455  -0.4222  -0.4202  -0.4146  -0.4071  -0.4051  -0.3882  -0.3565
    -0.3541  -0.3471  -0.3430  -0.2782  -0.2771  -0.2424  -0.2419  -0.1840
    -0.1833  -0.1829  -0.1606  -0.1565   0.0676   0.0889   0.4177   0.4177
     0.5059   0.5217   0.7016   0.7317   0.7353   0.8640   0.8675   1.2977
     1.2983   1.3151   1.5772   1.6078   1.6082   1.8799   1.8953   1.9619
     1.9639   1.9881   1.9991   2.2185   2.2198   2.3088   2.3095   2.3810
     2.4435   2.4595   2.6121   2.7127   3.1455   3.1513   3.1537   3.1585
     3.2066   3.2108   3.5009   3.5028   3.7795   3.7897   3.8851   4.1979
     4.2372   4.2432   4.4483   4.4646   4.5400   4.5415   4.6340   4.7485
     4.7542   4.8674   4.8708   5.1705   5.2370   5.2432   5.2819   5.3976
     5.4396   5.6258   5.6295   5.6533   5.6577   5.7094   5.7232   5.7521
     5.8455   6.0657   6.2689   6.3046   6.3240   6.4590   6.4611   6.4717
     6.4789   6.5305   6.6482   6.7066   6.7160   6.8447   6.8729   6.9401
     6.9611   7.0318   7.0591

          k = 0.0000 0.2887 0.1111 (136898 PWs)   bands (ev):

   -19.0459  -6.8958  -6.5338  -5.7426  -5.4520  -5.3925  -5.3920  -4.8540
    -4.8537  -4.7230  -4.7219  -4.5674  -4.5384  -4.4744  -4.4415  -4.4412
    -4.4072  -4.4070  -4.2786  -4.2372  -4.2364  -4.1771  -4.1564  -4.1562
    -4.0534  -4.0533  -4.0173  -4.0170  -4.0168  -3.9907  -3.9686  -3.9683
    -3.8656  -3.8617  -3.8610  -3.8412  -3.8240  -3.8238  -3.8120  -3.8116
    -3.7991  -3.7684  -3.7682  -3.7674  -3.7671  -3.7360  -3.7354  -3.7172
    -3.7171  -3.7053  -3.6625  -3.6619  -3.6301  -3.6156  -3.6145  -3.6086
    -3.6084  -3.5344  -3.5341  -3.5004  -3.4976  -3.4969  -3.4291  -3.4287
    -3.4134  -3.4131  -3.3837  -3.3827  -3.3823  -3.3818  -3.2301  -3.2275
    -3.2113  -3.2033  -3.2004  -3.1814  -3.1809  -3.1562  -3.1554  -3.1188
    -3.1052  -3.1017  -3.0888  -3.0791  -3.0672  -3.0209  -3.0198  -2.9997
    -2.9955  -2.9935  -2.9547  -2.9535  -2.9471  -2.9468  -2.9310  -2.9298
    -2.8915  -2.8913  -2.8703  -2.8696  -2.8664  -2.8662  -2.8619  -2.7867
    -2.7854  -2.7842  -2.7554  -2.7551  -2.6950  -2.6934  -2.6650  -2.6632
    -2.6511  -2.6509  -2.6446  -2.6161  -2.6155  -2.6055  -2.5881  -2.5643
    -2.5633  -2.5620  -2.5421  -2.5416  -2.5312  -2.5305  -2.5281  -2.5266
    -2.5175  -2.4717  -2.4406  -2.4405  -2.4250  -2.4113  -2.4049  -2.4042
    -2.3971  -2.3963  -2.3942  -2.3663  -2.3650  -2.3643  -2.3552  -2.3541
    -2.3382  -2.3116  -2.3107  -2.3099  -2.3085  -2.3080  -2.2623  -2.2337
    -2.2310  -2.2307  -2.2244  -2.2146  -2.2048  -2.2022  -2.1850  -2.1848
    -2.1546  -2.1506  -2.1503  -2.1327  -2.1318  -2.1311  -2.0988  -2.0977
    -2.0587  -2.0540  -2.0490  -2.0474  -2.0462  -2.0414  -2.0409  -2.0391
    -2.0368  -2.0319  -2.0305  -2.0143  -2.0129  -1.8888  -1.8872  -1.8559
    -1.8503  -1.8485  -1.8414  -1.8406  -1.8316  -1.8248  -1.8217  -1.8208
    -1.8191  -1.7963  -1.7953  -1.7908  -1.7874  -1.7767  -1.7754  -1.7541
    -1.7533  -1.7250  -1.7243  -1.6939  -1.6926  -1.6816  -1.6737  -1.6573
    -1.6551  -1.6519  -1.6346  -1.6228  -1.6213  -1.6149  -1.6141  -1.5879
    -1.5876  -1.5733  -1.5706  -1.5530  -1.5389  -1.5284  -1.4838  -1.4787
    -1.4764  -1.4645  -1.4640  -1.4379  -1.4360  -1.4154  -1.4031  -1.4017
    -1.3814  -1.3607  -1.3590  -1.3417  -1.3410  -1.3287  -1.3154  -1.3142
    -1.2845  -1.2821  -1.2812  -1.2498  -1.2192  -1.2171  -1.2066  -1.2002
    -1.1891  -1.1853  -1.1759  -1.1702  -1.1573  -1.1448  -1.1173  -1.1155
    -1.1026  -1.0716  -1.0677  -1.0604  -1.0548  -1.0546  -1.0525  -1.0491
    -1.0385  -1.0331  -1.0047  -1.0044  -0.9936  -0.9913  -0.9899  -0.9696
    -0.9670  -0.9498  -0.9358  -0.9268  -0.8958  -0.8317  -0.8211  -0.8156
    -0.8152  -0.8096  -0.8067  -0.7976  -0.7814  -0.7733  -0.7657  -0.7589
    -0.7504  -0.7445  -0.7417  -0.7214  -0.7196  -0.7106  -0.7077  -0.6374
    -0.6367  -0.6045  -0.5993  -0.5984  -0.5927  -0.5904  -0.5898  -0.5856
    -0.5782  -0.5702  -0.5487  -0.5348  -0.5178  -0.5020  -0.5006  -0.4907
    -0.4868  -0.4784  -0.4769  -0.4754  -0.4741  -0.4656  -0.4573  -0.4530
    -0.4455  -0.4222  -0.4202  -0.4146  -0.4071  -0.4051  -0.3882  -0.3565
    -0.3541  -0.3471  -0.3429  -0.2782  -0.2771  -0.2424  -0.2419  -0.1840
    -0.1833  -0.1829  -0.1606  -0.1565   0.0676   0.0889   0.4177   0.4177
     0.5059   0.5217   0.7016   0.7317   0.7353   0.8640   0.8675   1.2977
     1.2983   1.3151   1.5772   1.6078   1.6082   1.8799   1.8953   1.9619
     1.9639   1.9881   1.9991   2.2185   2.2198   2.3088   2.3095   2.3810
     2.4435   2.4595   2.6121   2.7127   3.1455   3.1513   3.1537   3.1585
     3.2066   3.2108   3.5009   3.5028   3.7795   3.7897   3.8851   4.1979
     4.2372   4.2432   4.4483   4.4646   4.5400   4.5415   4.6340   4.7485
     4.7542   4.8674   4.8708   5.1705   5.2370   5.2432   5.2820   5.3976
     5.4394   5.6258   5.6295   5.6533   5.6577   5.7094   5.7233   5.7514
     5.8478   6.0630   6.2665   6.3047   6.3239   6.4590   6.4610   6.4717
     6.4786   6.5394   6.6452   6.7076   6.7162   6.8385   6.8726   6.9401
     6.9614   7.0368   7.0670

     the Fermi energy is     1.4424 ev

!    total energy              =   -6604.43325111 Ry
     Harris-Foulkes estimate   =   -6604.43325111 Ry
     estimated scf accuracy    <          8.9E-09 Ry

     The total energy is the sum of the following terms:

     one-electron contribution =  -48692.65119038 Ry
     hartree contribution      =   24847.57708062 Ry
     xc contribution           =   -3204.97725558 Ry
     ewald contribution        =   20445.61526596 Ry
     smearing contrib. (-TS)   =       0.00284826 Ry

     convergence has been achieved in  22 iterations

     negative rho (up, down):  1.757E+00 0.000E+00

     Forces acting on atoms (Ry/au):

     atom    1 type  3   force =     0.00055826    0.00671621    0.00419853
     atom    2 type  2   force =    -0.00709925   -0.00537237    0.00206904
     atom    3 type  2   force =     0.00396651   -0.00262274    0.00128285
     atom    4 type  1   force =     0.00012008    0.00031600   -0.00244235
     atom    5 type  1   force =     0.00018637    0.00005673   -0.00261084
     atom    6 type  1   force =     0.00018443    0.00003866   -0.00255547
     atom    7 type  1   force =     0.00021083   -0.00015322   -0.00237819
     atom    8 type  1   force =    -0.00009891    0.00022644   -0.00261512
     atom    9 type  1   force =    -0.00005845    0.00001507   -0.00262658
     atom   10 type  1   force =     0.00001054   -0.00006063   -0.00262745
     atom   11 type  1   force =    -0.00001651   -0.00029120   -0.00255511
     atom   12 type  1   force =     0.00005639    0.00027463   -0.00251745
     atom   13 type  1   force =     0.00006494   -0.00003256   -0.00260338
     atom   14 type  1   force =    -0.00014489   -0.00007341   -0.00273017
     atom   15 type  1   force =     0.00005627   -0.00018702   -0.00242894
     atom   16 type  1   force =    -0.00019813    0.00013367   -0.00229750
     atom   17 type  1   force =    -0.00021506   -0.00005413   -0.00239823
     atom   18 type  1   force =    -0.00008100   -0.00012233   -0.00247104
     atom   19 type  1   force =    -0.00018185   -0.00012957   -0.00227608
     atom   20 type  1   force =     0.00021254    0.00022894    0.00255209
     atom   21 type  1   force =     0.00022740    0.00008488    0.00244819
     atom   22 type  1   force =     0.00011751    0.00013270    0.00265390
     atom   23 type  1   force =     0.00033219   -0.00021505    0.00248707
     atom   24 type  1   force =    -0.00004082    0.00038016    0.00254601
     atom   25 type  1   force =     0.00006741    0.00005405    0.00259594
     atom   26 type  1   force =     0.00004553    0.00002480    0.00261299
     atom   27 type  1   force =     0.00008622   -0.00034240    0.00261564
     atom   28 type  1   force =     0.00000782    0.00033866    0.00252911
     atom   29 type  1   force =    -0.00003721    0.00001370    0.00265900
     atom   30 type  1   force =     0.00010250    0.00005256    0.00284401
     atom   31 type  1   force =     0.00001244   -0.00036301    0.00261555
     atom   32 type  1   force =    -0.00023329    0.00024252    0.00256214
     atom   33 type  1   force =    -0.00020937   -0.00009363    0.00267865
     atom   34 type  1   force =    -0.00019705   -0.00018001    0.00256102
     atom   35 type  1   force =    -0.00026843   -0.00034793    0.00253432
     atom   36 type  1   force =    -0.00002868    0.00008403   -0.00011301
     atom   37 type  1   force =     0.00010046   -0.00019017    0.00077409
     atom   38 type  1   force =    -0.00009787    0.00014654    0.00038181
     atom   39 type  1   force =     0.00011736   -0.00006830   -0.00023386
     atom   40 type  1   force =     0.00001941    0.00006992   -0.00008706
     atom   41 type  1   force =    -0.00004700    0.00013238    0.00000692
     atom   42 type  1   force =     0.00041566    0.00023461    0.00032890
     atom   43 type  1   force =     0.00005514   -0.00012510   -0.00032260
     atom   44 type  1   force =    -0.00006432    0.00005872   -0.00008298
     atom   45 type  1   force =    -0.00001189    0.00000274    0.00002020
     atom   46 type  1   force =    -0.00019038   -0.00009443   -0.00020842
     atom   47 type  1   force =    -0.00014508   -0.00015713   -0.00029755
     atom   48 type  1   force =    -0.00006419    0.00012615   -0.00017086
     atom   49 type  1   force =    -0.00010922    0.00002518    0.00020883
     atom   50 type  1   force =     0.00006621   -0.00009891   -0.00022298
     atom   51 type  1   force =     0.00001890    0.00003267   -0.00001415
     atom   52 type  1   force =    -0.00037252    0.00051834   -0.00027681
     atom   53 type  1   force =     0.00188822    0.00114521   -0.00847616
     atom   54 type  1   force =     0.00037083   -0.00081333   -0.00019486
     atom   55 type  1   force =     0.00006185   -0.00003837    0.00010983
     atom   56 type  1   force =     0.00004401    0.00002628    0.00000523
     atom   57 type  1   force =    -0.00032123    0.00004711    0.00018566
     atom   58 type  1   force =    -0.00015824   -0.00031133    0.00047814
     atom   59 type  1   force =     0.00005714    0.00003134    0.00014035
     atom   60 type  1   force =    -0.00014131   -0.00003199    0.00004058
     atom   61 type  1   force =    -0.00002283   -0.00001820    0.00007420
     atom   62 type  1   force =    -0.00007589   -0.00008541    0.00008057
     atom   63 type  1   force =    -0.00002602   -0.00003661    0.00006840
     atom   64 type  1   force =     0.00040802    0.00064356   -0.00061040
     atom   65 type  1   force =     0.00081184    0.00013926   -0.00057887
     atom   66 type  1   force =    -0.00011885    0.00002915    0.00008752
     atom   67 type  1   force =     0.00001452   -0.00011309   -0.00001278

     Total force =     0.013071     Total SCF correction =     0.000022

     BFGS Geometry Optimization

     number of scf cycles    =   1
     number of bfgs steps    =   0

     energy   new            =   -6604.4332511126 Ry

     new trust radius        =       0.0091401608 bohr
     new conv_thr            =       0.0000000100 Ry


ATOMIC_POSITIONS (angstrom)
O        5.766199358   4.779531090  10.379894522
H        5.161178276   4.192382190   9.878724493
H        6.350750727   4.163662797  10.863461724
Au       4.261117000   7.380470000   0.000000000    0   0   0
Au       5.765040000   4.775598000   0.000000000    0   0   0
Au       7.268964000   2.170727000   0.000000000    0   0   0
Au       8.772887000  -0.434145000   0.000000000    0   0   0
Au       1.253270000   7.380470000   0.000000000    0   0   0
Au       2.757193000   4.775598000   0.000000000    0   0   0
Au       4.261117000   2.170727000   0.000000000    0   0   0
Au       5.765040000  -0.434145000   0.000000000    0   0   0
Au      -1.754577000   7.380470000   0.000000000    0   0   0
Au      -0.250654000   4.775598000   0.000000000    0   0   0
Au       1.253270000   2.170727000   0.000000000    0   0   0
Au       2.757193000  -0.434145000   0.000000000    0   0   0
Au      -4.762424000   7.380470000   0.000000000    0   0   0
Au      -3.258500000   4.775598000   0.000000000    0   0   0
Au      -1.754577000   2.170727000   0.000000000    0   0   0
Au      -0.250654000  -0.434145000   0.000000000    0   0   0
Au       5.765040000   8.248760000   2.455896000    0   0   0
Au       7.268964000   5.643889000   2.455896000    0   0   0
Au       8.772887000   3.039017000   2.455896000    0   0   0
Au      10.276810000   0.434145000   2.455896000    0   0   0
Au       2.757193000   8.248760000   2.455896000    0   0   0
Au       4.261117000   5.643889000   2.455896000    0   0   0
Au       5.765040000   3.039017000   2.455896000    0   0   0
Au       7.268964000   0.434145000   2.455896000    0   0   0
Au      -0.250654000   8.248760000   2.455896000    0   0   0
Au       1.253270000   5.643889000   2.455896000    0   0   0
Au       2.757193000   3.039017000   2.455896000    0   0   0
Au       4.261117000   0.434145000   2.455896000    0   0   0
Au      -3.258500000   8.248760000   2.455896000    0   0   0
[...]
    -3.0443  -3.0434  -3.0281  -3.0268  -3.0072  -2.9595  -2.9593  -2.9401
    -2.9348  -2.9335  -2.8937  -2.8930  -2.8863  -2.8858  -2.8707  -2.8700
    -2.8306  -2.8299  -2.8090  -2.8085  -2.8055  -2.8047  -2.8014  -2.7257
    -2.7252  -2.7234  -2.6947  -2.6937  -2.6335  -2.6330  -2.6042  -2.6029
    -2.5902  -2.5894  -2.5839  -2.5550  -2.5547  -2.5447  -2.5273  -2.5035
    -2.5022  -2.5018  -2.4811  -2.4809  -2.4706  -2.4702  -2.4667  -2.4655
    -2.4569  -2.4109  -2.3795  -2.3793  -2.3643  -2.3502  -2.3436  -2.3432
    -2.3360  -2.3354  -2.3334  -2.3050  -2.3039  -2.3036  -2.2938  -2.2934
    -2.2770  -2.2501  -2.2497  -2.2486  -2.2475  -2.2470  -2.2015  -2.1723
    -2.1703  -2.1700  -2.1635  -2.1538  -2.1423  -2.1416  -2.1241  -2.1239
    -2.0928  -2.0898  -2.0896  -2.0710  -2.0705  -2.0704  -2.0379  -2.0373
    -1.9966  -1.9933  -1.9878  -1.9860  -1.9854  -1.9812  -1.9791  -1.9781
    -1.9765  -1.9703  -1.9698  -1.9531  -1.9520  -1.8292  -1.8262  -1.7993
    -1.7909  -1.7875  -1.7802  -1.7800  -1.7726  -1.7638  -1.7622  -1.7603
    -1.7586  -1.7396  -1.7344  -1.7287  -1.7268  -1.7154  -1.7148  -1.6935
    -1.6921  -1.6639  -1.6631  -1.6356  -1.6320  -1.6203  -1.6135  -1.5958
    -1.5946  -1.5908  -1.5733  -1.5639  -1.5602  -1.5547  -1.5531  -1.5315
    -1.5263  -1.5144  -1.5102  -1.5087  -1.4781  -1.4689  -1.4385  -1.4170
    -1.4161  -1.4039  -1.4030  -1.3798  -1.3769  -1.3695  -1.3418  -1.3410
    -1.3306  -1.3011  -1.2976  -1.2836  -1.2804  -1.2785  -1.2541  -1.2535
    -1.2296  -1.2222  -1.2202  -1.2198  -1.1575  -1.1571  -1.1452  -1.1418
    -1.1279  -1.1262  -1.1152  -1.1105  -1.0961  -1.0838  -1.0565  -1.0552
    -1.0427  -1.0117  -1.0069  -1.0007  -0.9939  -0.9937  -0.9920  -0.9882
    -0.9814  -0.9723  -0.9436  -0.9426  -0.9338  -0.9312  -0.9300  -0.9106
    -0.9066  -0.8895  -0.8773  -0.8670  -0.8478  -0.7711  -0.7598  -0.7544
    -0.7541  -0.7491  -0.7459  -0.7389  -0.7196  -0.7150  -0.7050  -0.7001
    -0.6895  -0.6843  -0.6804  -0.6605  -0.6583  -0.6499  -0.6492  -0.5762
    -0.5759  -0.5444  -0.5389  -0.5380  -0.5326  -0.5295  -0.5292  -0.5256
    -0.5181  -0.5106  -0.4899  -0.4741  -0.4586  -0.4414  -0.4390  -0.4302
    -0.4265  -0.4175  -0.4159  -0.4145  -0.4139  -0.4060  -0.3963  -0.3924
    -0.3850  -0.3611  -0.3599  -0.3541  -0.3466  -0.3439  -0.3273  -0.2958
    -0.2933  -0.2865  -0.2826  -0.2180  -0.2155  -0.1813  -0.1807  -0.1229
    -0.1221  -0.1218  -0.1002  -0.0944   0.1261   0.1500   0.4786   0.4787
     0.5645   0.5831   0.7608   0.7924   0.7982   0.9250   0.9291   1.3588
     1.3590   1.3765   1.6369   1.6687   1.6690   1.9368   1.9575   2.0233
     2.0250   2.0473   2.0625   2.2804   2.2806   2.3697   2.3706   2.4354
     2.5007   2.5237   2.6736   2.7732   3.2078   3.2115   3.2131   3.2226
     3.2683   3.2710   3.5622   3.5634   3.8376   3.8515   3.9354   4.2590
     4.2966   4.3057   4.4965   4.5105   4.6001   4.6053   4.6938   4.8080
     4.8175   4.9275   4.9320   5.1072   5.2321   5.2936   5.3103   5.4351
     5.4852   5.6872   5.6926   5.7147   5.7177   5.7620   5.7721   5.7830
     5.8539   6.0530   6.2081   6.2681   6.3845   6.4915   6.5214   6.5219
     6.5306   6.5430   6.6328   6.7554   6.7778   6.7894   6.8441   6.9666
     6.9996   7.0211   7.0475

          k = 0.0000 0.2887 0.1111 (136898 PWs)   bands (ev):

   -19.2060  -7.0110  -6.4742  -5.6821  -5.3921  -5.3320  -5.3315  -4.7934
    -4.7930  -4.6628  -4.6612  -4.5071  -4.4773  -4.4137  -4.3811  -4.3810
    -4.3465  -4.3464  -4.2178  -4.1762  -4.1758  -4.1165  -4.0959  -4.0958
    -3.9927  -3.9925  -3.9566  -3.9563  -3.9563  -3.9299  -3.9079  -3.9076
    -3.8048  -3.8008  -3.8005  -3.7804  -3.7634  -3.7632  -3.7511  -3.7510
    -3.7382  -3.7076  -3.7074  -3.7067  -3.7064  -3.6749  -3.6746  -3.6565
    -3.6564  -3.6441  -3.6011  -3.6001  -3.5703  -3.5551  -3.5541  -3.5479
    -3.5478  -3.4740  -3.4735  -3.4426  -3.4385  -3.4362  -3.3698  -3.3681
    -3.3615  -3.3527  -3.3304  -3.3219  -3.3214  -3.3211  -3.3021  -3.1671
    -3.1642  -3.1418  -3.1404  -3.1369  -3.1202  -3.1189  -3.0945  -3.0932
    -3.0443  -3.0434  -3.0281  -3.0268  -3.0072  -2.9595  -2.9593  -2.9401
    -2.9348  -2.9335  -2.8937  -2.8930  -2.8863  -2.8858  -2.8707  -2.8700
    -2.8306  -2.8299  -2.8090  -2.8085  -2.8055  -2.8047  -2.8014  -2.7257
    -2.7252  -2.7234  -2.6947  -2.6937  -2.6335  -2.6330  -2.6042  -2.6029
    -2.5902  -2.5894  -2.5839  -2.5550  -2.5547  -2.5447  -2.5273  -2.5035
    -2.5022  -2.5018  -2.4811  -2.4809  -2.4706  -2.4702  -2.4667  -2.4655
    -2.4569  -2.4109  -2.3795  -2.3793  -2.3643  -2.3502  -2.3436  -2.3432
    -2.3360  -2.3354  -2.3334  -2.3050  -2.3040  -2.3036  -2.2938  -2.2934
    -2.2770  -2.2501  -2.2497  -2.2486  -2.2475  -2.2470  -2.2015  -2.1723
    -2.1703  -2.1700  -2.1635  -2.1538  -2.1423  -2.1416  -2.1241  -2.1239
    -2.0928  -2.0898  -2.0896  -2.0710  -2.0705  -2.0704  -2.0379  -2.0373
    -1.9966  -1.9933  -1.9878  -1.9860  -1.9854  -1.9812  -1.9791  -1.9781
    -1.9765  -1.9703  -1.9698  -1.9531  -1.9520  -1.8292  -1.8262  -1.7993
    -1.7909  -1.7875  -1.7802  -1.7800  -1.7726  -1.7638  -1.7622  -1.7603
    -1.7586  -1.7396  -1.7344  -1.7287  -1.7268  -1.7154  -1.7148  -1.6935
    -1.6921  -1.6639  -1.6631  -1.6356  -1.6320  -1.6203  -1.6135  -1.5958
    -1.5946  -1.5908  -1.5733  -1.5639  -1.5602  -1.5547  -1.5531  -1.5315
    -1.5263  -1.5144  -1.5102  -1.5087  -1.4781  -1.4689  -1.4385  -1.4170
    -1.4161  -1.4039  -1.4030  -1.3798  -1.3769  -1.3695  -1.3418  -1.3410
    -1.3306  -1.3011  -1.2976  -1.2836  -1.2804  -1.2785  -1.2541  -1.2535
    -1.2296  -1.2222  -1.2202  -1.2198  -1.1575  -1.1571  -1.1452  -1.1418
    -1.1279  -1.1262  -1.1152  -1.1105  -1.0961  -1.0838  -1.0565  -1.0552
    -1.0427  -1.0117  -1.0069  -1.0007  -0.9939  -0.9937  -0.9920  -0.9881
    -0.9814  -0.9723  -0.9436  -0.9426  -0.9338  -0.9312  -0.9300  -0.9106
    -0.9066  -0.8895  -0.8773  -0.8670  -0.8478  -0.7711  -0.7598  -0.7544
    -0.7541  -0.7492  -0.7459  -0.7389  -0.7196  -0.7150  -0.7050  -0.7001
    -0.6895  -0.6843  -0.6804  -0.6605  -0.6583  -0.6499  -0.6492  -0.5762
    -0.5759  -0.5444  -0.5389  -0.5380  -0.5326  -0.5295  -0.5292  -0.5256
    -0.5181  -0.5106  -0.4899  -0.4741  -0.4586  -0.4414  -0.4390  -0.4302
    -0.4265  -0.4175  -0.4159  -0.4145  -0.4139  -0.4060  -0.3963  -0.3924
    -0.3850  -0.3611  -0.3599  -0.3541  -0.3466  -0.3439  -0.3274  -0.2958
    -0.2933  -0.2865  -0.2826  -0.2180  -0.2155  -0.1813  -0.1807  -0.1229
    -0.1221  -0.1218  -0.1002  -0.0944   0.1261   0.1500   0.4786   0.4787
     0.5645   0.5831   0.7608   0.7925   0.7982   0.9250   0.9291   1.3588
     1.3590   1.3765   1.6369   1.6687   1.6690   1.9368   1.9575   2.0233
     2.0250   2.0473   2.0625   2.2804   2.2806   2.3697   2.3706   2.4354
     2.5007   2.5237   2.6736   2.7732   3.2078   3.2115   3.2131   3.2226
     3.2683   3.2710   3.5622   3.5634   3.8376   3.8515   3.9354   4.2590
     4.2966   4.3057   4.4965   4.5105   4.6001   4.6053   4.6938   4.8080
     4.8175   4.9275   4.9320   5.1072   5.2321   5.2936   5.3103   5.4351
     5.4851   5.6872   5.6926   5.7147   5.7177   5.7618   5.7721   5.7828
     5.8559   6.0504   6.2081   6.2659   6.3845   6.5000   6.5215   6.5221
     6.5306   6.5428   6.6296   6.7552   6.7777   6.7893   6.8368   6.9679
     7.0037   7.0259   7.0516

     the Fermi energy is     1.5029 ev

!    total energy              =   -6604.43793374 Ry
     Harris-Foulkes estimate   =   -6604.43793374 Ry
     estimated scf accuracy    <          6.1E-11 Ry

     The total energy is the sum of the following terms:

     one-electron contribution =  -48667.05282249 Ry
     hartree contribution      =   24836.30230540 Ry
     xc contribution           =   -3204.96180710 Ry
     ewald contribution        =   20431.27154007 Ry
     smearing contrib. (-TS)   =       0.00285039 Ry

     convergence has been achieved in  12 iterations

     negative rho (up, down):  1.757E+00 0.000E+00

     Forces acting on atoms (Ry/au):

     atom    1 type  3   force =     0.00035574    0.00076507   -0.00004688
     atom    2 type  2   force =    -0.00029380   -0.00039725   -0.00021662
     atom    3 type  2   force =     0.00004312   -0.00012895   -0.00060788
     atom    4 type  1   force =     0.00010326    0.00029805   -0.00244661
     atom    5 type  1   force =     0.00020043    0.00006354   -0.00265768
     atom    6 type  1   force =     0.00015609    0.00003791   -0.00256242
     atom    7 type  1   force =     0.00020576   -0.00016479   -0.00239192
     atom    8 type  1   force =    -0.00011473    0.00027781   -0.00263350
     atom    9 type  1   force =    -0.00002594    0.00002585   -0.00260039
     atom   10 type  1   force =     0.00002932   -0.00004516   -0.00261385
     atom   11 type  1   force =     0.00001503   -0.00033226   -0.00256676
     atom   12 type  1   force =     0.00004750    0.00026637   -0.00260991
     atom   13 type  1   force =    -0.00001494   -0.00004881   -0.00263964
     atom   14 type  1   force =    -0.00021693   -0.00009737   -0.00270120
     atom   15 type  1   force =     0.00001836   -0.00025913   -0.00244275
     atom   16 type  1   force =    -0.00016201    0.00015523   -0.00231864
     atom   17 type  1   force =    -0.00018184   -0.00003127   -0.00241893
     atom   18 type  1   force =    -0.00000635   -0.00014002   -0.00253920
     atom   19 type  1   force =    -0.00018078   -0.00007536   -0.00234861
     atom   20 type  1   force =     0.00022914    0.00017125    0.00264670
     atom   21 type  1   force =     0.00022061    0.00008050    0.00242620
     atom   22 type  1   force =     0.00007597    0.00017258    0.00275483
     atom   23 type  1   force =     0.00037053   -0.00018707    0.00243767
     atom   24 type  1   force =    -0.00005688    0.00039655    0.00255069
     atom   25 type  1   force =     0.00006155    0.00002945    0.00254229
     atom   26 type  1   force =     0.00002623    0.00002438    0.00254824
     atom   27 type  1   force =     0.00007865   -0.00035461    0.00263277
     atom   28 type  1   force =    -0.00001673    0.00031648    0.00251961
     atom   29 type  1   force =    -0.00006042    0.00002739    0.00265077
     atom   30 type  1   force =     0.00018447    0.00009728    0.00284559
     atom   31 type  1   force =     0.00002057   -0.00037349    0.00261194
     atom   32 type  1   force =    -0.00020878    0.00027789    0.00252745
     atom   33 type  1   force =    -0.00015607   -0.00008823    0.00265034
     atom   34 type  1   force =    -0.00025169   -0.00019879    0.00252610
     atom   35 type  1   force =    -0.00030781   -0.00037336    0.00252886
     atom   36 type  1   force =    -0.00003560    0.00011414   -0.00019967
     atom   37 type  1   force =    -0.00000597   -0.00048861    0.00117703
     atom   38 type  1   force =    -0.00043197    0.00020767    0.00082623
     atom   39 type  1   force =     0.00014231   -0.00009774   -0.00033988
     atom   40 type  1   force =     0.00001840    0.00006937   -0.00011959
     atom   41 type  1   force =     0.00001788    0.00011143    0.00008643
     atom   42 type  1   force =     0.00045140    0.00024411    0.00081416
     atom   43 type  1   force =     0.00006683   -0.00003958   -0.00014550
     atom   44 type  1   force =    -0.00008893    0.00001769   -0.00012851
     atom   45 type  1   force =    -0.00005414   -0.00000496   -0.00002368
     atom   46 type  1   force =    -0.00019769   -0.00013016   -0.00029599
     atom   47 type  1   force =    -0.00016780   -0.00012166   -0.00034844
     atom   48 type  1   force =    -0.00002443    0.00015253   -0.00022244
     atom   49 type  1   force =     0.00003020    0.00010572   -0.00002632
     atom   50 type  1   force =     0.00013376   -0.00007949   -0.00031734
     atom   51 type  1   force =     0.00000452    0.00003886   -0.00004501
     atom   52 type  1   force =    -0.00042855    0.00053497   -0.00037630
     atom   53 type  1   force =     0.00025266    0.00015160   -0.00079903
     atom   54 type  1   force =     0.00034874   -0.00074539   -0.00018545
     atom   55 type  1   force =     0.00008112   -0.00003279    0.00019789
     atom   56 type  1   force =     0.00007851    0.00000988    0.00011986
     atom   57 type  1   force =    -0.00075232    0.00011063   -0.00027694
     atom   58 type  1   force =    -0.00034911   -0.00080513   -0.00020566
     atom   59 type  1   force =     0.00005389    0.00009725    0.00024423
     atom   60 type  1   force =    -0.00012104   -0.00002819    0.00010570
     atom   61 type  1   force =    -0.00005424   -0.00001834    0.00020108
     atom   62 type  1   force =     0.00005836   -0.00000664    0.00022651
     atom   63 type  1   force =    -0.00003863   -0.00005696    0.00020317
     atom   64 type  1   force =     0.00036482    0.00047802   -0.00030302
     atom   65 type  1   force =     0.00054975    0.00012120   -0.00011512
     atom   66 type  1   force =    -0.00010061    0.00001716    0.00018459
     atom   67 type  1   force =     0.00001126   -0.00011427    0.00005034

     Total force =     0.001180     Total SCF correction =     0.000002

     bfgs converged in  36 scf cycles and  33 bfgs steps
     (criteria: energy <  1.0E-04, force <  1.0E-03)

     End of BFGS Geometry Optimization

     Final energy   =   -6604.4379337389 Ry
Begin final coordinates

ATOMIC_POSITIONS (angstrom)
O        5.635691341   4.677047365  10.407280702
H        4.895557879   4.061408817  10.566682505
H        6.426130436   4.204527143  10.730737583
Au       4.261117000   7.380470000   0.000000000    0   0   0
Au       5.765040000   4.775598000   0.000000000    0   0   0
Au       7.268964000   2.170727000   0.000000000    0   0   0
Au       8.772887000  -0.434145000   0.000000000    0   0   0
Au       1.253270000   7.380470000   0.000000000    0   0   0
Au       2.757193000   4.775598000   0.000000000    0   0   0
Au       4.261117000   2.170727000   0.000000000    0   0   0
Au       5.765040000  -0.434145000   0.000000000    0   0   0
Au      -1.754577000   7.380470000   0.000000000    0   0   0
Au      -0.250654000   4.775598000   0.000000000    0   0   0
Au       1.253270000   2.170727000   0.000000000    0   0   0
Au       2.757193000  -0.434145000   0.000000000    0   0   0
Au      -4.762424000   7.380470000   0.000000000    0   0   0
Au      -3.258500000   4.775598000   0.000000000    0   0   0
Au      -1.754577000   2.170727000   0.000000000    0   0   0
Au      -0.250654000  -0.434145000   0.000000000    0   0   0
Au       5.765040000   8.248760000   2.455896000    0   0   0
Au       7.268964000   5.643889000   2.455896000    0   0   0
Au       8.772887000   3.039017000   2.455896000    0   0   0
Au      10.276810000   0.434145000   2.455896000    0   0   0
Au       2.757193000   8.248760000   2.455896000    0   0   0
Au       4.261117000   5.643889000   2.455896000    0   0   0
Au       5.765040000   3.039017000   2.455896000    0   0   0
Au       7.268964000   0.434145000   2.455896000    0   0   0
Au      -0.250654000   8.248760000   2.455896000    0   0   0
Au       1.253270000   5.643889000   2.455896000    0   0   0
Au       2.757193000   3.039017000   2.455896000    0   0   0
Au       4.261117000   0.434145000   2.455896000    0   0   0
Au      -3.258500000   8.248760000   2.455896000    0   0   0
Au      -1.754577000   5.643889000   2.455896000    0   0   0
Au      -0.250654000   3.039017000   2.455896000    0   0   0
Au       1.253270000   0.434145000   2.455896000    0   0   0
Au       4.261936086   9.118745949   4.894181796    0   0   0
Au       5.766168858   6.512870680   4.894437955    0   0   0
Au       7.270077990   3.907733622   4.894344067    0   0   0
Au       8.774144024   1.301851563   4.894238208    0   0   0
Au       1.253081841   9.118316194   4.893897745    0   0   0
Au       2.757315175   6.512439707   4.894148627    0   0   0
Au       4.261219778   3.907303886   4.894058403    0   0   0
Au       5.765297248   1.301418763   4.893952753    0   0   0
Au      -1.755005563   9.118157099   4.893871056    0   0   0
Au      -0.250775832   6.512280371   4.894127734    0   0   0
Au       1.253129886   3.907144806   4.894032314    0   0   0
Au       2.757203248   1.301260700   4.893929884    0   0   0
Au      -4.763818999   9.117780756   4.893374701    0   0   0
Au      -3.259585414   6.511903063   4.893631474    0   0   0
Au      -1.755681715   3.906769930   4.893536782    0   0   0
Au      -0.251607469   1.300886748   4.893429919    0   0   0
Au       4.261843034   7.381735769   7.377424444    0   0   0
Au       5.765903940   4.775977024   7.377672754    0   0   0
Au       7.269820773   2.170961653   7.377541712    0   0   0
Au       8.774018470  -0.434744481   7.376971426    0   0   0
Au       1.253179795   7.381430866   7.377738213    0   0   0
Au       2.757243204   4.775669411   7.378001384    0   0   0
Au       4.261157347   2.170650070   7.377856520    0   0   0
Au       5.765354042  -0.435050225   7.377300462    0   0   0
Au      -1.754800224   7.381337914   7.377687123    0   0   0
Au      -0.250744359   4.775576254   7.377937998    0   0   0
Au       1.253174615   2.170560080   7.377811054    0   0   0
Au       2.757369880  -0.435145449   7.377237928    0   0   0
Au      -4.763507679   7.381007356   7.377074050    0   0   0
Au      -3.259441573   4.775242495   7.377336099    0   0   0
Au      -1.755528945   2.170226057   7.377192528    0   0   0
Au      -0.251327688  -0.435472367   7.376640090    0   0   0
End final coordinates



     Writing output data file 30433193.save
 
     init_run     :     68.72s CPU     70.65s WALL (       1 calls)
     electrons    :  80859.27s CPU  82643.43s WALL (      36 calls)
     update_pot   :    435.63s CPU    465.84s WALL (      35 calls)
     forces       :   1599.55s CPU   1668.46s WALL (      36 calls)

     Called by init_run:
     wfcinit      :     51.37s CPU     51.81s WALL (       1 calls)
     potinit      :     10.52s CPU     11.21s WALL (       1 calls)

     Called by electrons:
     c_bands      :  60819.41s CPU  61402.86s WALL (     591 calls)
     sum_band     :  12237.38s CPU  12635.49s WALL (     591 calls)
     v_of_rho     :   5630.94s CPU   5994.80s WALL (     596 calls)
     newd         :   2009.78s CPU   2436.94s WALL (     596 calls)
     mix_rho      :    196.15s CPU    197.49s WALL (     591 calls)

     Called by c_bands:
     init_us_2    :    223.39s CPU    224.33s WALL (    1183 calls)
     cegterg      :  56395.98s CPU  56953.53s WALL (     591 calls)

     Called by sum_band:
     sum_band:bec :      2.52s CPU      2.62s WALL (     591 calls)
     addusdens    :   3175.77s CPU   3539.57s WALL (     591 calls)

     Called by *egterg:
     h_psi        :  31826.26s CPU  31951.59s WALL (    2042 calls)
     s_psi        :   5899.46s CPU   5917.63s WALL (    2042 calls)
     g_psi        :     72.47s CPU     72.67s WALL (    1450 calls)
     cdiaghg      :   1910.85s CPU   1916.09s WALL (    1975 calls)

     Called by h_psi:
     add_vuspsi   :   5881.13s CPU   5899.31s WALL (    2042 calls)

     General routines
     calbec       :   8903.36s CPU   8931.80s WALL (    2777 calls)
     fft          :   3401.55s CPU   3578.03s WALL (   41547 calls)
     ffts         :     32.60s CPU     32.85s WALL (    1187 calls)
     fftw         :  17362.26s CPU  17437.63s WALL ( 1373743 calls)
     interpolate  :    158.87s CPU    159.56s WALL (    1187 calls)
     davcio       :      0.02s CPU      3.86s WALL (      36 calls)
 
     Parallel routines
     fft_scatter  :   6166.16s CPU   6276.50s WALL ( 1416477 calls)
 
     PWSCF        :    23h 5m CPU       23h38m WALL

 
   This run was terminated on:  13:53:17   9Nov2016            

=------------------------------------------------------------------------------=
   JOB DONE.
=------------------------------------------------------------------------------=
