
     Program PWSCF v.5.4.0 starts on 25Jan2017 at  0:59: 2 

     This program is part of the open-source Quantum ESPRESSO suite
     for quantum simulation of materials; please cite
         "P. Giannozzi et al., J. Phys.:Condens. Matter 21 395502 (2009);
          URL http://www.quantum-espresso.org", 
     in publications or presentations arising from this work. More details at
     http://www.quantum-espresso.org/quote

     Parallel version (MPI), running on    48 processors
     K-points division:     npool     =       6
     R & G space division:  proc/nbgrp/npool/nimage =       8
     Reading input from top.O1.Au62.d.0.0.phi.0.psi.90.in
Warning: card &CELL ignored
Warning: card / ignored

     Current dimensions of program PWSCF are:
     Max number of different atomic species (ntypx) = 10
     Max number of k-points (npk) =  40000
     Max angular momentum in pseudopotentials (lmaxx) =  3

     Subspace diagonalization in iterative solution of the eigenvalue problem:
     a serial algorithm will be used

 
     Parallelization info
     --------------------
     sticks:   dense  smooth     PW     G-vecs:    dense   smooth      PW
     Min        2313    1158    298               474089   167622   21962
     Max        2314    1159    299               474104   167655   21969
     Sum       18505    9265   2385              3792731  1341081  175711
 

     Title: 
     top.O1.Au62.d.0.0.phi.0.psi.90.relax                                       


     bravais-lattice index     =            8
     lattice parameter (alat)  =      24.1233  a.u.
     unit-cell volume          =   28076.2361 (a.u.)^3
     number of atoms/cell      =           75
     number of atomic types    =            3
     number of electrons       =       800.00
     number of Kohn-Sham states=          480
     kinetic-energy cutoff     =      50.0000  Ry
     charge density cutoff     =     400.0000  Ry
     convergence threshold     =      1.0E-08
     mixing beta               =       0.7000
     number of iterations used =            8  plain     mixing
     Exchange-correlation      =  SLA  PW   PBE  PBE ( 1  4  3  4 0 0)
     nstep                     =           50


     celldm(1)=  24.123277  celldm(2)=   1.000000  celldm(3)=   2.000000
     celldm(4)=   0.000000  celldm(5)=   0.000000  celldm(6)=   0.000000

     crystal axes: (cart. coord. in units of alat)
               a(1) = (   1.000000   0.000000   0.000000 )  
               a(2) = (   0.000000   1.000000   0.000000 )  
               a(3) = (   0.000000   0.000000   2.000000 )  

     reciprocal axes: (cart. coord. in units 2 pi/alat)
               b(1) = (  1.000000  0.000000  0.000000 )  
               b(2) = (  0.000000  1.000000  0.000000 )  
               b(3) = (  0.000000  0.000000  0.500000 )  


     PseudoPot. # 1 for Au read from file:
     ../../../../pseudo/Au.pbe-nd-van.UPF
     MD5 check sum: 458681b50f36d87ef23c61b04bba420a
     Pseudo is Ultrasoft + core correction, Zval = 11.0
     Generated by new atomic code, or converted to UPF format
     Using radial grid of  985 points,  3 beta functions with: 
                l(1) =   1
                l(2) =   2
                l(3) =   2
     Q(r) pseudized with  8 coefficients,  rinner =    1.100   1.100   1.100
                                                       1.100   1.100

     PseudoPot. # 2 for H  read from file:
     ../../../../pseudo/H.pbe-van_ak.UPF
     MD5 check sum: 403db7282739603aa925980fa9b8608d
     Pseudo is Ultrasoft, Zval =  1.0
     Generated by new atomic code, or converted to UPF format
     Using radial grid of  615 points,  1 beta functions with: 
                l(1) =   0
     Q(r) pseudized with  8 coefficients,  rinner =    0.800

     PseudoPot. # 3 for O  read from file:
     ../../../../pseudo/O.pbe-van_ak.UPF
     MD5 check sum: 4b8c549914a63cae506c6ff22b5af4fe
     Pseudo is Ultrasoft, Zval =  6.0
     Generated by new atomic code, or converted to UPF format
     Using radial grid of  737 points,  4 beta functions with: 
                l(1) =   0
                l(2) =   0
                l(3) =   1
                l(4) =   1
     Q(r) pseudized with  8 coefficients,  rinner =    0.800   0.800   0.800


     atomic species   valence    mass     pseudopotential
        Au            11.00   196.96657     Au( 1.00)
        H              1.00     1.01000     H ( 1.00)
        O              6.00    16.00000     O ( 1.00)

     No symmetry found



   Cartesian axes

     site n.     atom                  positions (alat units)
         1           O   tau(   1) = (   0.4998324   0.3332216   0.7343272  )
         2           H   tau(   2) = (   0.4527548   0.2877277   0.6951557  )
         3           H   tau(   3) = (   0.5454827   0.2853639   0.7723288  )
         4           Au  tau(   4) = (   0.0000000   0.0000000   0.0000000  )
         5           Au  tau(   5) = (   0.3332217   0.0000000   0.0000000  )
         6           Au  tau(   6) = (   0.6664435   0.0000000   0.0000000  )
         7           Au  tau(   7) = (   0.1666109   0.1666109   0.0000000  )
         8           Au  tau(   8) = (   0.4998326   0.1666109   0.0000000  )
         9           Au  tau(   9) = (   0.8330542   0.1666109   0.0000000  )
        10           Au  tau(  10) = (   0.0000000   0.3332217   0.0000000  )
        11           Au  tau(  11) = (   0.3332217   0.3332217   0.0000000  )
        12           Au  tau(  12) = (   0.6664435   0.3332217   0.0000000  )
        13           Au  tau(  13) = (   0.1666109   0.4998326   0.0000000  )
        14           Au  tau(  14) = (   0.4998326   0.4998326   0.0000000  )
        15           Au  tau(  15) = (   0.8330542   0.4998326   0.0000000  )
        16           Au  tau(  16) = (   0.0000000   0.6664435   0.0000000  )
        17           Au  tau(  17) = (   0.3332217   0.6664435   0.0000000  )
        18           Au  tau(  18) = (   0.6664435   0.6664435   0.0000000  )
        19           Au  tau(  19) = (   0.1666109   0.8330542   0.0000000  )
        20           Au  tau(  20) = (   0.4998326   0.8330542   0.0000000  )
        21           Au  tau(  21) = (   0.8330542   0.8330542   0.0000000  )
        22           Au  tau(  22) = (   0.1666109   0.0000000   0.1666109  )
        23           Au  tau(  23) = (   0.4998326   0.0000000   0.1666109  )
        24           Au  tau(  24) = (   0.8330542   0.0000000   0.1666109  )
        25           Au  tau(  25) = (   0.0000000   0.1666109   0.1666109  )
        26           Au  tau(  26) = (   0.3332217   0.1666109   0.1666109  )
        27           Au  tau(  27) = (   0.6664435   0.1666109   0.1666109  )
        28           Au  tau(  28) = (   0.1666109   0.3332217   0.1666109  )
        29           Au  tau(  29) = (   0.4998326   0.3332217   0.1666109  )
        30           Au  tau(  30) = (   0.8330542   0.3332217   0.1666109  )
        31           Au  tau(  31) = (   0.0000000   0.4998326   0.1666109  )
        32           Au  tau(  32) = (   0.3332217   0.4998326   0.1666109  )
        33           Au  tau(  33) = (   0.6664435   0.4998326   0.1666109  )
        34           Au  tau(  34) = (   0.1666109   0.6664435   0.1666109  )
        35           Au  tau(  35) = (   0.4998326   0.6664435   0.1666109  )
        36           Au  tau(  36) = (   0.8330542   0.6664435   0.1666109  )
        37           Au  tau(  37) = (   0.0000000   0.8330542   0.1666109  )
        38           Au  tau(  38) = (   0.3332217   0.8330542   0.1666109  )
        39           Au  tau(  39) = (   0.6664435   0.8330542   0.1666109  )
        40           Au  tau(  40) = (  -0.0000182  -0.0000182   0.3335478  )
        41           Au  tau(  41) = (   0.3332215  -0.0000181   0.3335472  )
        42           Au  tau(  42) = (   0.6664447  -0.0000183   0.3335481  )
        43           Au  tau(  43) = (  -0.0000181   0.3332215   0.3335472  )
        44           Au  tau(  44) = (   0.3332215   0.3332215   0.3335468  )
        45           Au  tau(  45) = (   0.6664445   0.3332215   0.3335478  )
        46           Au  tau(  46) = (  -0.0000183   0.6664447   0.3335481  )
        47           Au  tau(  47) = (   0.3332215   0.6664445   0.3335478  )
        48           Au  tau(  48) = (   0.6664446   0.6664446   0.3335486  )
        49           Au  tau(  49) = (   0.1666097   0.1666097   0.3335483  )
        50           Au  tau(  50) = (   0.4998320   0.1666098   0.3335477  )
        51           Au  tau(  51) = (   0.8330732   0.1666096   0.3335481  )
        52           Au  tau(  52) = (   0.1666098   0.4998320   0.3335477  )
        53           Au  tau(  53) = (   0.4998321   0.4998321   0.3335470  )
        54           Au  tau(  54) = (   0.8330730   0.4998322   0.3335474  )
        55           Au  tau(  55) = (   0.1666096   0.8330732   0.3335481  )
        56           Au  tau(  56) = (   0.4998322   0.8330730   0.3335474  )
        57           Au  tau(  57) = (   0.8330731   0.8330731   0.3335478  )
        58           Au  tau(  58) = (   0.1666104  -0.0000111   0.4993095  )
        59           Au  tau(  59) = (   0.4998323  -0.0000112   0.4993099  )
        60           Au  tau(  60) = (   0.8330661  -0.0000111   0.4993009  )
        61           Au  tau(  61) = (  -0.0000111   0.1666104   0.4993095  )
        62           Au  tau(  62) = (   0.3332214   0.1666106   0.4993185  )
        63           Au  tau(  63) = (   0.6664437   0.1666106   0.4993187  )
        64           Au  tau(  64) = (   0.1666106   0.3332214   0.4993185  )
        65           Au  tau(  65) = (   0.4998324   0.3332216   0.4993185  )
        66           Au  tau(  66) = (   0.8330659   0.3332215   0.4993103  )
        67           Au  tau(  67) = (  -0.0000112   0.4998323   0.4993099  )
        68           Au  tau(  68) = (   0.3332216   0.4998324   0.4993185  )
        69           Au  tau(  69) = (   0.6664436   0.4998325   0.4993187  )
        70           Au  tau(  70) = (   0.1666106   0.6664437   0.4993187  )
        71           Au  tau(  71) = (   0.4998325   0.6664436   0.4993187  )
        72           Au  tau(  72) = (   0.8330658   0.6664438   0.4993102  )
        73           Au  tau(  73) = (  -0.0000111   0.8330661   0.4993009  )
        74           Au  tau(  74) = (   0.3332215   0.8330659   0.4993103  )
        75           Au  tau(  75) = (   0.6664438   0.8330658   0.4993102  )

     number of k points=     6  Marzari-Vanderbilt smearing, width (Ry)=  0.0200
                       cart. coord. in units 2pi/alat
        k(    1) = (   0.2500000   0.2500000   0.0833333), wk =   0.3333333
        k(    2) = (   0.2500000   0.2500000  -0.2500000), wk =   0.3333333
        k(    3) = (  -0.2500000  -0.2500000   0.0833333), wk =   0.3333333
        k(    4) = (  -0.2500000   0.2500000  -0.0833333), wk =   0.3333333
        k(    5) = (   0.2500000  -0.2500000  -0.0833333), wk =   0.3333333
        k(    6) = (  -0.2500000   0.2500000   0.2500000), wk =   0.3333333

     Dense  grid:  3792731 G-vectors     FFT dimensions: ( 160, 160, 320)

     Smooth grid:  1341081 G-vectors     FFT dimensions: ( 120, 120, 225)

     Largest allocated arrays     est. size (Mb)     dimensions
        Kohn-Sham Wavefunctions       154.19 Mb     (   21052,  480)
        NL pseudopotentials           303.88 Mb     (   21052,  946)
        Each V/rho on FFT grid         15.62 Mb     ( 1024000)
        Each G-vector array             3.62 Mb     (  474091)
        G-vector shells                 0.08 Mb     (   10780)
     Largest temporary arrays     est. size (Mb)     dimensions
        Auxiliary wavefunctions       616.76 Mb     (   21052, 1920)
        Each subspace H/S matrix       56.25 Mb     (    1920, 1920)
        Each <psi_i|beta_j> matrix      6.93 Mb     (     946,  480)
        Arrays for rho mixing         125.00 Mb     ( 1024000,    8)

     Initial potential from superposition of free atoms
     Check: negative starting charge=   -1.945168

     starting charge  799.16392, renormalised to  800.00000

     negative rho (up, down):  1.947E+00 0.000E+00
     Starting wfc are  654 randomized atomic wfcs

     total cpu time spent up to now is       56.5 secs

     per-process dynamical memory:   717.0 Mb

     Self-consistent Calculation

     iteration #  1     ecut=    50.00 Ry     beta=0.70
     Davidson diagonalization with overlap
     ethr =  1.00E-02,  avg # of iterations =  3.0

     Threshold (ethr) on eigenvalues was too large:
     Diagonalizing with lowered threshold

     Davidson diagonalization with overlap
     ethr =  4.93E-04,  avg # of iterations =  2.0

     negative rho (up, down):  1.932E+00 0.000E+00

     total cpu time spent up to now is      272.3 secs

     total energy              =   -7377.43384048 Ry
     Harris-Foulkes estimate   =   -7380.94790680 Ry
     estimated scf accuracy    <       4.46640137 Ry

     iteration #  2     ecut=    50.00 Ry     beta=0.70
     Davidson diagonalization with overlap
     ethr =  5.58E-04,  avg # of iterations = 11.3

     negative rho (up, down):  1.930E+00 0.000E+00

     total cpu time spent up to now is      584.7 secs

     total energy              =   -7368.87458137 Ry
     Harris-Foulkes estimate   =   -7387.91427018 Ry
     estimated scf accuracy    <      98.07344186 Ry

     iteration #  3     ecut=    50.00 Ry     beta=0.70
     Davidson diagonalization with overlap
     ethr =  5.58E-04,  avg # of iterations =  6.0

     negative rho (up, down):  1.947E+00 0.000E+00

     total cpu time spent up to now is      797.7 secs

     total energy              =   -7378.76344552 Ry
     Harris-Foulkes estimate   =   -7380.68566856 Ry
     estimated scf accuracy    <       7.32156691 Ry

     iteration #  4     ecut=    50.00 Ry     beta=0.70
     Davidson diagonalization with overlap
     ethr =  5.58E-04,  avg # of iterations =  4.8

     negative rho (up, down):  1.951E+00 0.000E+00

     total cpu time spent up to now is      917.8 secs

     total energy              =   -7379.29366038 Ry
     Harris-Foulkes estimate   =   -7380.51392942 Ry
     estimated scf accuracy    <       7.64862976 Ry

     iteration #  5     ecut=    50.00 Ry     beta=0.70
     Davidson diagonalization with overlap
     ethr =  5.58E-04,  avg # of iterations =  5.7

     negative rho (up, down):  1.960E+00 0.000E+00

     total cpu time spent up to now is     1035.9 secs

     total energy              =   -7379.78419552 Ry
     Harris-Foulkes estimate   =   -7380.26136676 Ry
     estimated scf accuracy    <       3.38503520 Ry

     iteration #  6     ecut=    50.00 Ry     beta=0.70
     Davidson diagonalization with overlap
     ethr =  4.23E-04,  avg # of iterations =  2.8

     negative rho (up, down):  1.963E+00 0.000E+00

     total cpu time spent up to now is     1140.5 secs

     total energy              =   -7379.95787475 Ry
     Harris-Foulkes estimate   =   -7380.02318903 Ry
     estimated scf accuracy    <       0.22705669 Ry

     iteration #  7     ecut=    50.00 Ry     beta=0.70
     Davidson diagonalization with overlap
     ethr =  2.84E-05,  avg # of iterations =  9.5

     negative rho (up, down):  1.966E+00 0.000E+00

     total cpu time spent up to now is     1279.5 secs

     total energy              =   -7379.96872401 Ry
     Harris-Foulkes estimate   =   -7380.01580463 Ry
     estimated scf accuracy    <       0.24555819 Ry

     iteration #  8     ecut=    50.00 Ry     beta=0.70
     Davidson diagonalization with overlap
     ethr =  2.84E-05,  avg # of iterations =  3.0

     negative rho (up, down):  1.968E+00 0.000E+00

     total cpu time spent up to now is     1385.7 secs

     total energy              =   -7379.97732432 Ry
     Harris-Foulkes estimate   =   -7379.99867008 Ry
     estimated scf accuracy    <       0.08567720 Ry

     iteration #  9     ecut=    50.00 Ry     beta=0.70
     Davidson diagonalization with overlap
     ethr =  1.07E-05,  avg # of iterations = 13.3

     negative rho (up, down):  1.969E+00 0.000E+00

     total cpu time spent up to now is     1532.9 secs

     total energy              =   -7379.98025909 Ry
     Harris-Foulkes estimate   =   -7379.98952852 Ry
     estimated scf accuracy    <       0.02832071 Ry

     iteration # 10     ecut=    50.00 Ry     beta=0.70
     Davidson diagonalization with overlap
     ethr =  3.54E-06,  avg # of iterations =  6.0

     negative rho (up, down):  1.970E+00 0.000E+00

     total cpu time spent up to now is     1691.0 secs

     total energy              =   -7379.98217006 Ry
     Harris-Foulkes estimate   =   -7379.98523498 Ry
     estimated scf accuracy    <       0.00797124 Ry

     iteration # 11     ecut=    50.00 Ry     beta=0.70
     Davidson diagonalization with overlap
     ethr =  9.96E-07,  avg # of iterations =  3.8

     negative rho (up, down):  1.970E+00 0.000E+00

     total cpu time spent up to now is     1809.5 secs

     total energy              =   -7379.98296283 Ry
     Harris-Foulkes estimate   =   -7379.98422156 Ry
     estimated scf accuracy    <       0.00367749 Ry

     iteration # 12     ecut=    50.00 Ry     beta=0.70
     Davidson diagonalization with overlap
     ethr =  4.60E-07,  avg # of iterations =  2.0

     negative rho (up, down):  1.971E+00 0.000E+00

     total cpu time spent up to now is     1914.5 secs

     total energy              =   -7379.98298139 Ry
     Harris-Foulkes estimate   =   -7379.98394910 Ry
     estimated scf accuracy    <       0.00367019 Ry

     iteration # 13     ecut=    50.00 Ry     beta=0.70
     Davidson diagonalization with overlap
     ethr =  4.59E-07,  avg # of iterations =  6.0

     negative rho (up, down):  1.971E+00 0.000E+00

     total cpu time spent up to now is     2046.4 secs

     total energy              =   -7379.98269637 Ry
     Harris-Foulkes estimate   =   -7379.98453099 Ry
     estimated scf accuracy    <       0.00947709 Ry

     iteration # 14     ecut=    50.00 Ry     beta=0.70
     Davidson diagonalization with overlap
     ethr =  4.59E-07,  avg # of iterations =  3.7

     negative rho (up, down):  1.971E+00 0.000E+00

     total cpu time spent up to now is     2155.7 secs

     total energy              =   -7379.98355114 Ry
     Harris-Foulkes estimate   =   -7379.98359845 Ry
     estimated scf accuracy    <       0.00015157 Ry

     iteration # 15     ecut=    50.00 Ry     beta=0.70
     Davidson diagonalization with overlap
     ethr =  1.89E-08,  avg # of iterations =  2.5

     negative rho (up, down):  1.970E+00 0.000E+00

     total cpu time spent up to now is     2281.1 secs

     total energy              =   -7379.98355571 Ry
     Harris-Foulkes estimate   =   -7379.98362002 Ry
     estimated scf accuracy    <       0.00046059 Ry

     iteration # 16     ecut=    50.00 Ry     beta=0.70
     Davidson diagonalization with overlap
     ethr =  1.89E-08,  avg # of iterations =  2.0

     negative rho (up, down):  1.970E+00 0.000E+00

     total cpu time spent up to now is     2384.9 secs

     total energy              =   -7379.98358531 Ry
     Harris-Foulkes estimate   =   -7379.98360094 Ry
     estimated scf accuracy    <       0.00007794 Ry

     iteration # 17     ecut=    50.00 Ry     beta=0.70
     Davidson diagonalization with overlap
     ethr =  9.74E-09,  avg # of iterations =  1.0

     negative rho (up, down):  1.970E+00 0.000E+00

     total cpu time spent up to now is     2483.8 secs

     total energy              =   -7379.98359194 Ry
     Harris-Foulkes estimate   =   -7379.98359420 Ry
     estimated scf accuracy    <       0.00000560 Ry

     iteration # 18     ecut=    50.00 Ry     beta=0.70
     Davidson diagonalization with overlap
     ethr =  7.01E-10,  avg # of iterations =  3.0

     negative rho (up, down):  1.970E+00 0.000E+00

     total cpu time spent up to now is     2623.0 secs

     total energy              =   -7379.98359176 Ry
     Harris-Foulkes estimate   =   -7379.98359492 Ry
     estimated scf accuracy    <       0.00001463 Ry

     iteration # 19     ecut=    50.00 Ry     beta=0.70
     Davidson diagonalization with overlap
     ethr =  7.01E-10,  avg # of iterations =  3.0

     negative rho (up, down):  1.970E+00 0.000E+00

     total cpu time spent up to now is     2732.0 secs

     total energy              =   -7379.98359305 Ry
     Harris-Foulkes estimate   =   -7379.98359389 Ry
     estimated scf accuracy    <       0.00000382 Ry

     iteration # 20     ecut=    50.00 Ry     beta=0.70
     Davidson diagonalization with overlap
     ethr =  4.78E-10,  avg # of iterations =  3.0

     negative rho (up, down):  1.970E+00 0.000E+00

     total cpu time spent up to now is     2836.6 secs

     total energy              =   -7379.98359338 Ry
     Harris-Foulkes estimate   =   -7379.98359367 Ry
     estimated scf accuracy    <       0.00000106 Ry

     iteration # 21     ecut=    50.00 Ry     beta=0.70
     Davidson diagonalization with overlap
     ethr =  1.32E-10,  avg # of iterations =  2.0

     negative rho (up, down):  1.970E+00 0.000E+00

     total cpu time spent up to now is     2941.0 secs

     total energy              =   -7379.98359346 Ry
     Harris-Foulkes estimate   =   -7379.98359362 Ry
     estimated scf accuracy    <       0.00000052 Ry

     iteration # 22     ecut=    50.00 Ry     beta=0.70
     Davidson diagonalization with overlap
     ethr =  6.48E-11,  avg # of iterations =  2.0

     negative rho (up, down):  1.970E+00 0.000E+00

     total cpu time spent up to now is     3042.3 secs

     total energy              =   -7379.98359352 Ry
     Harris-Foulkes estimate   =   -7379.98359357 Ry
     estimated scf accuracy    <       0.00000026 Ry

     iteration # 23     ecut=    50.00 Ry     beta=0.70
     Davidson diagonalization with overlap
     ethr =  3.22E-11,  avg # of iterations =  2.0

     negative rho (up, down):  1.970E+00 0.000E+00

     total cpu time spent up to now is     3144.7 secs

     total energy              =   -7379.98359354 Ry
     Harris-Foulkes estimate   =   -7379.98359355 Ry
     estimated scf accuracy    <       0.00000003 Ry

     iteration # 24     ecut=    50.00 Ry     beta=0.70
     Davidson diagonalization with overlap
     ethr =  3.45E-12,  avg # of iterations =  3.0

     negative rho (up, down):  1.970E+00 0.000E+00

     total cpu time spent up to now is     3294.8 secs

     total energy              =   -7379.98359352 Ry
     Harris-Foulkes estimate   =   -7379.98359357 Ry
     estimated scf accuracy    <       0.00000022 Ry

     iteration # 25     ecut=    50.00 Ry     beta=0.70
     Davidson diagonalization with overlap
     ethr =  3.45E-12,  avg # of iterations =  3.0

     negative rho (up, down):  1.970E+00 0.000E+00

     total cpu time spent up to now is     3433.0 secs

     total energy              =   -7379.98359354 Ry
     Harris-Foulkes estimate   =   -7379.98359355 Ry
     estimated scf accuracy    <       0.00000002 Ry

     iteration # 26     ecut=    50.00 Ry     beta=0.70
     Davidson diagonalization with overlap
     ethr =  1.98E-12,  avg # of iterations =  2.0

     negative rho (up, down):  1.970E+00 0.000E+00

     total cpu time spent up to now is     3537.6 secs

     total energy              =   -7379.98359354 Ry
     Harris-Foulkes estimate   =   -7379.98359355 Ry
     estimated scf accuracy    <       0.00000003 Ry

     iteration # 27     ecut=    50.00 Ry     beta=0.70
     Davidson diagonalization with overlap
     ethr =  1.98E-12,  avg # of iterations =  2.0

     negative rho (up, down):  1.970E+00 0.000E+00

     total cpu time spent up to now is     3640.0 secs

     End of self-consistent calculation

          k = 0.2500 0.2500 0.0833 (167653 PWs)   bands (ev):

   -19.5165  -7.3547  -6.8283  -6.2989  -6.2979  -5.8604  -5.4573  -5.3585
    -5.3579  -5.1366  -5.1363  -5.0406  -5.0393  -4.9063  -4.8984  -4.7890
    -4.7006  -4.6963  -4.6755  -4.6750  -4.4946  -4.4930  -4.4927  -4.4665
    -4.4622  -4.4614  -4.4573  -4.4052  -4.4043  -4.4017  -4.4013  -4.3378
    -4.3095  -4.3093  -4.2538  -4.2496  -4.2481  -4.2128  -4.2120  -4.1982
    -4.1934  -4.1749  -4.1747  -4.1387  -4.1053  -4.1052  -4.1026  -4.0993
    -4.0991  -4.0698  -4.0409  -4.0386  -4.0091  -4.0087  -4.0057  -4.0047
    -4.0031  -3.9967  -3.9666  -3.9648  -3.9051  -3.9043  -3.8729  -3.8477
    -3.8393  -3.8359  -3.8349  -3.8131  -3.8124  -3.8013  -3.7509  -3.7505
    -3.7451  -3.7446  -3.6618  -3.6593  -3.6429  -3.6369  -3.6026  -3.6023
    -3.5860  -3.5647  -3.5613  -3.5488  -3.5167  -3.5162  -3.5142  -3.5098
    -3.4899  -3.4891  -3.4093  -3.4086  -3.4063  -3.3922  -3.3781  -3.3736
    -3.3621  -3.3617  -3.3549  -3.3543  -3.3122  -3.3117  -3.2904  -3.2881
    -3.2536  -3.2515  -3.2268  -3.2053  -3.2048  -3.1592  -3.1585  -3.1259
    -3.0984  -3.0976  -3.0973  -3.0966  -3.0931  -3.0926  -3.0676  -3.0556
    -3.0183  -3.0178  -2.9973  -2.9729  -2.9709  -2.9697  -2.9639  -2.9632
    -2.9593  -2.9590  -2.9244  -2.9230  -2.9228  -2.9178  -2.9171  -2.9123
    -2.8567  -2.8527  -2.8480  -2.8469  -2.8257  -2.8249  -2.8201  -2.7306
    -2.7211  -2.7204  -2.7117  -2.7105  -2.7055  -2.7045  -2.7029  -2.6950
    -2.6942  -2.6850  -2.6764  -2.6758  -2.6731  -2.6685  -2.6590  -2.6542
    -2.6513  -2.6304  -2.6193  -2.6184  -2.6035  -2.6027  -2.5861  -2.5859
    -2.5768  -2.5766  -2.5559  -2.5443  -2.5439  -2.5403  -2.5383  -2.5058
    -2.5020  -2.5016  -2.4444  -2.4397  -2.4278  -2.4257  -2.4154  -2.4127
    -2.3887  -2.3872  -2.3828  -2.3722  -2.3703  -2.3611  -2.3587  -2.3443
    -2.3418  -2.3153  -2.3146  -2.3061  -2.3049  -2.2952  -2.2947  -2.2817
    -2.2658  -2.2458  -2.1762  -2.1741  -2.1543  -2.1535  -2.1459  -2.1423
    -2.0935  -2.0917  -2.0785  -2.0572  -2.0469  -2.0454  -2.0264  -2.0106
    -2.0080  -1.9996  -1.9949  -1.9641  -1.9583  -1.9554  -1.9464  -1.9450
    -1.9418  -1.9394  -1.9286  -1.9143  -1.9102  -1.9029  -1.9018  -1.9016
    -1.9011  -1.8997  -1.8861  -1.8719  -1.8662  -1.8637  -1.8583  -1.8501
    -1.8446  -1.8428  -1.8406  -1.8382  -1.8328  -1.8193  -1.7973  -1.7689
    -1.7436  -1.7341  -1.7167  -1.6886  -1.6882  -1.6877  -1.6775  -1.6748
    -1.6635  -1.6606  -1.6557  -1.6493  -1.6448  -1.6418  -1.6248  -1.6149
    -1.5874  -1.5776  -1.5695  -1.5480  -1.5408  -1.5095  -1.5039  -1.4581
    -1.4553  -1.4346  -1.4114  -1.4103  -1.4098  -1.4044  -1.4015  -1.3870
    -1.3836  -1.3833  -1.3829  -1.3813  -1.3810  -1.3796  -1.3778  -1.3583
    -1.3511  -1.3421  -1.3182  -1.3175  -1.3163  -1.2958  -1.2940  -1.2895
    -1.2889  -1.2859  -1.2674  -1.2488  -1.2419  -1.2238  -1.2224  -1.2056
    -1.2026  -1.1903  -1.1818  -1.1622  -1.1613  -1.1553  -1.1472  -1.1157
    -1.1139  -1.1041  -1.1032  -1.1023  -1.0936  -1.0769  -1.0759  -1.0628
    -1.0547  -1.0530  -1.0436  -1.0418  -1.0415  -1.0337  -1.0303  -1.0203
    -1.0188  -1.0119  -1.0118  -1.0049  -1.0012  -0.9873  -0.9851  -0.9431
    -0.9419  -0.9408  -0.9396  -0.9339  -0.9286  -0.9066  -0.8981  -0.8929
    -0.8743  -0.8719  -0.8659  -0.8621  -0.8577  -0.8486  -0.8423  -0.8131
    -0.8071  -0.8014  -0.7992  -0.7812  -0.7806  -0.7657  -0.7419  -0.7335
    -0.7157  -0.7151  -0.6785  -0.6780  -0.6755  -0.6734  -0.6688  -0.6676
    -0.6668  -0.6663  -0.6613  -0.6600  -0.6276  -0.6273  -0.6260  -0.6246
    -0.6236  -0.6127  -0.6095  -0.6011  -0.5816  -0.3226  -0.3111  -0.2677
    -0.2537  -0.2350  -0.1778  -0.0254  -0.0246   0.0132   0.2902   0.2943
     0.6307   0.6385   0.6746   0.6753   0.7248   0.7258   0.8838   0.8917
     1.0128   1.0152   1.1315   1.6239   1.6632   1.6710   1.7063   1.7074
     1.8408   1.8485   1.8997   1.9048   2.0824   2.0834   2.3674   2.3936
     2.3992   2.4165   2.8477   2.8546   2.8733   2.8742   2.8910   2.8917
     2.9555   2.9574   3.1058   3.2327   3.2352   3.4228   3.4242   3.5313
     3.6028   3.6053   3.9012   3.9033   3.9599   3.9621   3.9638   4.0915
     4.1085   4.1146   4.1318   4.4024   4.4056   4.4410   4.4422   4.5553
     4.5589   4.6207   4.6301   4.8858   5.3858   5.4994   5.5103   5.5833
     5.6430   5.7108   5.7130   5.7834   5.7840   5.7977   5.8017   5.8676
     5.9087   5.9165   6.0706   6.1736   6.1988   6.2064   6.2124   6.2147
     6.2161   6.2277   6.3212   6.3690   6.3889   6.4048   6.4875   6.5236

          k = 0.2500 0.2500-0.2500 (167588 PWs)   bands (ev):

   -19.5165  -7.3547  -6.8283  -6.2989  -6.2979  -5.8604  -5.4573  -5.3585
    -5.3579  -5.1366  -5.1363  -5.0406  -5.0393  -4.9063  -4.8984  -4.7890
    -4.7006  -4.6963  -4.6755  -4.6750  -4.4946  -4.4930  -4.4927  -4.4665
    -4.4622  -4.4614  -4.4573  -4.4052  -4.4043  -4.4017  -4.4013  -4.3378
    -4.3095  -4.3093  -4.2538  -4.2496  -4.2481  -4.2128  -4.2120  -4.1982
    -4.1934  -4.1749  -4.1747  -4.1387  -4.1053  -4.1052  -4.1026  -4.0993
    -4.0991  -4.0698  -4.0409  -4.0386  -4.0091  -4.0087  -4.0057  -4.0047
    -4.0031  -3.9967  -3.9666  -3.9648  -3.9051  -3.9043  -3.8729  -3.8477
    -3.8393  -3.8359  -3.8348  -3.8131  -3.8124  -3.8013  -3.7509  -3.7505
    -3.7451  -3.7446  -3.6618  -3.6593  -3.6429  -3.6369  -3.6026  -3.6023
    -3.5860  -3.5647  -3.5613  -3.5488  -3.5167  -3.5162  -3.5142  -3.5098
    -3.4899  -3.4891  -3.4093  -3.4086  -3.4063  -3.3922  -3.3781  -3.3736
    -3.3621  -3.3617  -3.3549  -3.3543  -3.3122  -3.3117  -3.2904  -3.2881
    -3.2536  -3.2515  -3.2268  -3.2053  -3.2048  -3.1592  -3.1585  -3.1259
    -3.0984  -3.0976  -3.0973  -3.0966  -3.0931  -3.0926  -3.0676  -3.0556
    -3.0183  -3.0178  -2.9973  -2.9729  -2.9709  -2.9697  -2.9639  -2.9632
    -2.9593  -2.9590  -2.9244  -2.9230  -2.9228  -2.9178  -2.9171  -2.9123
    -2.8567  -2.8527  -2.8480  -2.8469  -2.8257  -2.8249  -2.8201  -2.7306
    -2.7211  -2.7204  -2.7117  -2.7105  -2.7055  -2.7045  -2.7029  -2.6950
    -2.6942  -2.6850  -2.6764  -2.6758  -2.6731  -2.6685  -2.6590  -2.6542
    -2.6513  -2.6304  -2.6193  -2.6184  -2.6035  -2.6027  -2.5861  -2.5859
    -2.5768  -2.5766  -2.5559  -2.5443  -2.5439  -2.5403  -2.5383  -2.5058
    -2.5020  -2.5016  -2.4444  -2.4397  -2.4278  -2.4257  -2.4154  -2.4127
    -2.3887  -2.3872  -2.3828  -2.3722  -2.3703  -2.3611  -2.3587  -2.3443
    -2.3418  -2.3153  -2.3146  -2.3061  -2.3049  -2.2952  -2.2947  -2.2817
    -2.2657  -2.2458  -2.1762  -2.1741  -2.1543  -2.1535  -2.1459  -2.1423
    -2.0934  -2.0917  -2.0785  -2.0572  -2.0469  -2.0454  -2.0264  -2.0106
    -2.0080  -1.9997  -1.9949  -1.9641  -1.9583  -1.9554  -1.9464  -1.9450
    -1.9418  -1.9394  -1.9286  -1.9143  -1.9102  -1.9029  -1.9018  -1.9016
    -1.9011  -1.8997  -1.8861  -1.8719  -1.8662  -1.8638  -1.8583  -1.8501
    -1.8446  -1.8428  -1.8406  -1.8382  -1.8328  -1.8193  -1.7973  -1.7689
    -1.7436  -1.7341  -1.7167  -1.6886  -1.6882  -1.6877  -1.6775  -1.6747
    -1.6635  -1.6606  -1.6557  -1.6493  -1.6448  -1.6418  -1.6248  -1.6149
    -1.5874  -1.5776  -1.5695  -1.5480  -1.5408  -1.5095  -1.5039  -1.4581
    -1.4553  -1.4346  -1.4114  -1.4103  -1.4099  -1.4044  -1.4016  -1.3870
    -1.3836  -1.3833  -1.3829  -1.3813  -1.3810  -1.3796  -1.3778  -1.3583
    -1.3511  -1.3421  -1.3182  -1.3175  -1.3163  -1.2958  -1.2940  -1.2895
    -1.2889  -1.2859  -1.2674  -1.2488  -1.2419  -1.2238  -1.2224  -1.2056
    -1.2026  -1.1903  -1.1818  -1.1622  -1.1613  -1.1553  -1.1472  -1.1157
    -1.1138  -1.1041  -1.1032  -1.1023  -1.0936  -1.0769  -1.0759  -1.0628
    -1.0547  -1.0530  -1.0436  -1.0418  -1.0415  -1.0337  -1.0303  -1.0203
    -1.0188  -1.0119  -1.0117  -1.0049  -1.0012  -0.9873  -0.9851  -0.9431
    -0.9419  -0.9408  -0.9396  -0.9339  -0.9286  -0.9066  -0.8981  -0.8929
    -0.8743  -0.8719  -0.8659  -0.8620  -0.8577  -0.8486  -0.8423  -0.8131
    -0.8071  -0.8014  -0.7992  -0.7812  -0.7806  -0.7657  -0.7419  -0.7335
    -0.7157  -0.7151  -0.6785  -0.6780  -0.6755  -0.6734  -0.6689  -0.6676
    -0.6668  -0.6663  -0.6613  -0.6600  -0.6276  -0.6273  -0.6260  -0.6246
    -0.6236  -0.6127  -0.6095  -0.6011  -0.5816  -0.3226  -0.3111  -0.2677
    -0.2537  -0.2350  -0.1778  -0.0254  -0.0246   0.0132   0.2902   0.2943
     0.6307   0.6385   0.6746   0.6753   0.7248   0.7258   0.8838   0.8917
     1.0128   1.0152   1.1315   1.6239   1.6632   1.6710   1.7063   1.7074
     1.8408   1.8485   1.8997   1.9048   2.0824   2.0834   2.3674   2.3936
     2.3992   2.4165   2.8477   2.8546   2.8733   2.8742   2.8910   2.8917
     2.9555   2.9574   3.1058   3.2327   3.2352   3.4228   3.4242   3.5313
     3.6028   3.6053   3.9012   3.9033   3.9599   3.9621   3.9638   4.0916
     4.1085   4.1146   4.1318   4.4024   4.4055   4.4410   4.4422   4.5553
     4.5589   4.6207   4.6301   4.8859   5.3814   5.4993   5.5099   5.5834
     5.6331   5.7107   5.7127   5.7821   5.7835   5.7977   5.8017   5.8566
     5.9106   5.9425   6.1326   6.1547   6.1838   6.1995   6.2118   6.2136
     6.2160   6.2273   6.3133   6.3744   6.3929   6.4740   6.5185   6.5350

          k =-0.2500-0.2500 0.0833 (167653 PWs)   bands (ev):

   -19.5165  -7.3547  -6.8283  -6.2989  -6.2979  -5.8604  -5.4573  -5.3585
    -5.3579  -5.1366  -5.1363  -5.0406  -5.0393  -4.9063  -4.8984  -4.7890
    -4.7006  -4.6963  -4.6755  -4.6750  -4.4946  -4.4930  -4.4927  -4.4665
    -4.4622  -4.4614  -4.4573  -4.4052  -4.4043  -4.4017  -4.4013  -4.3378
    -4.3095  -4.3093  -4.2538  -4.2496  -4.2481  -4.2128  -4.2120  -4.1982
    -4.1934  -4.1749  -4.1747  -4.1387  -4.1053  -4.1052  -4.1026  -4.0993
    -4.0991  -4.0698  -4.0409  -4.0386  -4.0091  -4.0087  -4.0057  -4.0047
    -4.0031  -3.9967  -3.9666  -3.9648  -3.9051  -3.9043  -3.8729  -3.8477
    -3.8393  -3.8359  -3.8349  -3.8131  -3.8124  -3.8013  -3.7509  -3.7505
    -3.7451  -3.7446  -3.6618  -3.6593  -3.6429  -3.6369  -3.6026  -3.6023
    -3.5860  -3.5647  -3.5613  -3.5488  -3.5167  -3.5162  -3.5142  -3.5098
    -3.4899  -3.4891  -3.4093  -3.4086  -3.4063  -3.3922  -3.3781  -3.3736
    -3.3621  -3.3617  -3.3549  -3.3543  -3.3122  -3.3117  -3.2904  -3.2881
    -3.2536  -3.2515  -3.2268  -3.2053  -3.2048  -3.1592  -3.1585  -3.1259
    -3.0984  -3.0976  -3.0973  -3.0966  -3.0931  -3.0926  -3.0676  -3.0556
    -3.0183  -3.0178  -2.9973  -2.9729  -2.9709  -2.9697  -2.9639  -2.9632
    -2.9593  -2.9590  -2.9244  -2.9230  -2.9228  -2.9178  -2.9171  -2.9123
    -2.8567  -2.8527  -2.8480  -2.8469  -2.8257  -2.8249  -2.8201  -2.7306
    -2.7211  -2.7204  -2.7117  -2.7105  -2.7055  -2.7045  -2.7029  -2.6950
    -2.6942  -2.6850  -2.6764  -2.6758  -2.6731  -2.6685  -2.6590  -2.6542
    -2.6513  -2.6304  -2.6193  -2.6184  -2.6035  -2.6027  -2.5861  -2.5859
    -2.5768  -2.5766  -2.5559  -2.5443  -2.5439  -2.5403  -2.5383  -2.5058
    -2.5020  -2.5016  -2.4444  -2.4397  -2.4278  -2.4257  -2.4154  -2.4127
    -2.3887  -2.3872  -2.3828  -2.3722  -2.3703  -2.3611  -2.3587  -2.3443
    -2.3418  -2.3153  -2.3146  -2.3061  -2.3049  -2.2952  -2.2947  -2.2817
    -2.2658  -2.2458  -2.1762  -2.1741  -2.1543  -2.1535  -2.1459  -2.1423
    -2.0935  -2.0917  -2.0785  -2.0572  -2.0469  -2.0454  -2.0264  -2.0106
    -2.0080  -1.9996  -1.9949  -1.9641  -1.9583  -1.9554  -1.9464  -1.9450
    -1.9418  -1.9394  -1.9286  -1.9143  -1.9102  -1.9029  -1.9018  -1.9016
    -1.9011  -1.8997  -1.8861  -1.8719  -1.8662  -1.8637  -1.8583  -1.8501
    -1.8446  -1.8428  -1.8406  -1.8382  -1.8328  -1.8193  -1.7973  -1.7689
    -1.7436  -1.7341  -1.7167  -1.6886  -1.6882  -1.6877  -1.6775  -1.6748
    -1.6635  -1.6606  -1.6557  -1.6493  -1.6448  -1.6418  -1.6248  -1.6149
    -1.5874  -1.5776  -1.5695  -1.5480  -1.5408  -1.5095  -1.5039  -1.4581
    -1.4553  -1.4346  -1.4114  -1.4103  -1.4098  -1.4044  -1.4015  -1.3870
    -1.3836  -1.3833  -1.3829  -1.3813  -1.3810  -1.3796  -1.3778  -1.3583
    -1.3511  -1.3421  -1.3182  -1.3175  -1.3163  -1.2958  -1.2940  -1.2895
    -1.2889  -1.2859  -1.2674  -1.2488  -1.2419  -1.2238  -1.2224  -1.2056
    -1.2026  -1.1903  -1.1818  -1.1622  -1.1613  -1.1553  -1.1472  -1.1157
    -1.1139  -1.1041  -1.1032  -1.1023  -1.0936  -1.0769  -1.0759  -1.0628
    -1.0547  -1.0530  -1.0436  -1.0418  -1.0415  -1.0337  -1.0303  -1.0203
    -1.0188  -1.0119  -1.0118  -1.0049  -1.0012  -0.9873  -0.9851  -0.9431
    -0.9419  -0.9408  -0.9396  -0.9339  -0.9286  -0.9066  -0.8981  -0.8929
    -0.8743  -0.8719  -0.8659  -0.8621  -0.8577  -0.8486  -0.8423  -0.8131
    -0.8071  -0.8014  -0.7992  -0.7812  -0.7806  -0.7657  -0.7419  -0.7335
    -0.7157  -0.7151  -0.6785  -0.6780  -0.6755  -0.6734  -0.6688  -0.6676
    -0.6668  -0.6663  -0.6613  -0.6600  -0.6276  -0.6273  -0.6260  -0.6246
    -0.6236  -0.6127  -0.6095  -0.6011  -0.5816  -0.3226  -0.3111  -0.2677
    -0.2537  -0.2350  -0.1778  -0.0254  -0.0246   0.0132   0.2902   0.2943
     0.6307   0.6385   0.6746   0.6753   0.7248   0.7258   0.8838   0.8917
     1.0128   1.0152   1.1315   1.6239   1.6632   1.6710   1.7063   1.7074
     1.8408   1.8485   1.8997   1.9048   2.0824   2.0834   2.3674   2.3936
     2.3992   2.4165   2.8477   2.8546   2.8733   2.8742   2.8910   2.8917
     2.9555   2.9574   3.1058   3.2327   3.2352   3.4228   3.4242   3.5313
     3.6028   3.6053   3.9012   3.9033   3.9599   3.9621   3.9638   4.0915
     4.1085   4.1146   4.1318   4.4024   4.4056   4.4410   4.4422   4.5553
     4.5589   4.6207   4.6301   4.8858   5.3855   5.4994   5.5102   5.5833
     5.6442   5.7109   5.7132   5.7832   5.7837   5.7977   5.8017   5.8607
     5.9104   5.9192   6.0754   6.1726   6.1989   6.2060   6.2124   6.2149
     6.2161   6.2278   6.3308   6.3669   6.3860   6.3997   6.4767   6.5230

          k =-0.2500 0.2500-0.0833 (167653 PWs)   bands (ev):

   -19.5165  -7.3547  -6.8283  -6.2992  -6.2976  -5.8604  -5.4573  -5.3589
    -5.3575  -5.1367  -5.1363  -5.0409  -5.0390  -4.9063  -4.8983  -4.7890
    -4.7008  -4.6963  -4.6756  -4.6749  -4.4947  -4.4933  -4.4923  -4.4665
    -4.4622  -4.4615  -4.4573  -4.4055  -4.4040  -4.4021  -4.4011  -4.3377
    -4.3095  -4.3092  -4.2539  -4.2494  -4.2483  -4.2130  -4.2115  -4.1981
    -4.1934  -4.1748  -4.1747  -4.1390  -4.1057  -4.1050  -4.1027  -4.0996
    -4.0986  -4.0700  -4.0402  -4.0388  -4.0095  -4.0084  -4.0055  -4.0047
    -4.0032  -3.9969  -3.9665  -3.9644  -3.9054  -3.9042  -3.8729  -3.8473
    -3.8402  -3.8357  -3.8348  -3.8130  -3.8124  -3.8013  -3.7512  -3.7505
    -3.7455  -3.7443  -3.6614  -3.6592  -3.6399  -3.6372  -3.6026  -3.6023
    -3.5860  -3.5676  -3.5616  -3.5475  -3.5170  -3.5159  -3.5146  -3.5128
    -3.4898  -3.4890  -3.4089  -3.4086  -3.4045  -3.3923  -3.3770  -3.3741
    -3.3622  -3.3616  -3.3553  -3.3545  -3.3121  -3.3113  -3.2906  -3.2886
    -3.2536  -3.2516  -3.2268  -3.2050  -3.2046  -3.1593  -3.1586  -3.1262
    -3.0989  -3.0979  -3.0969  -3.0969  -3.0930  -3.0926  -3.0675  -3.0557
    -3.0183  -3.0178  -2.9973  -2.9729  -2.9708  -2.9698  -2.9643  -2.9628
    -2.9594  -2.9590  -2.9244  -2.9230  -2.9225  -2.9176  -2.9170  -2.9123
    -2.8566  -2.8525  -2.8485  -2.8468  -2.8258  -2.8247  -2.8204  -2.7307
    -2.7213  -2.7202  -2.7118  -2.7103  -2.7058  -2.7039  -2.7031  -2.6950
    -2.6942  -2.6851  -2.6764  -2.6758  -2.6731  -2.6685  -2.6588  -2.6539
    -2.6513  -2.6304  -2.6195  -2.6184  -2.6034  -2.6027  -2.5865  -2.5857
    -2.5771  -2.5764  -2.5559  -2.5444  -2.5437  -2.5398  -2.5385  -2.5056
    -2.5021  -2.5016  -2.4443  -2.4398  -2.4280  -2.4257  -2.4151  -2.4129
    -2.3885  -2.3871  -2.3828  -2.3725  -2.3702  -2.3614  -2.3586  -2.3444
    -2.3418  -2.3153  -2.3148  -2.3064  -2.3049  -2.2956  -2.2944  -2.2821
    -2.2658  -2.2456  -2.1764  -2.1739  -2.1545  -2.1534  -2.1460  -2.1424
    -2.0941  -2.0916  -2.0787  -2.0573  -2.0464  -2.0456  -2.0264  -2.0106
    -2.0076  -1.9994  -1.9949  -1.9637  -1.9583  -1.9556  -1.9464  -1.9448
    -1.9411  -1.9390  -1.9288  -1.9140  -1.9103  -1.9029  -1.9020  -1.9016
    -1.9010  -1.8992  -1.8861  -1.8720  -1.8660  -1.8637  -1.8577  -1.8497
    -1.8447  -1.8435  -1.8404  -1.8381  -1.8327  -1.8185  -1.7978  -1.7677
    -1.7430  -1.7345  -1.7130  -1.6887  -1.6880  -1.6874  -1.6797  -1.6744
    -1.6661  -1.6602  -1.6563  -1.6477  -1.6454  -1.6430  -1.6252  -1.6159
    -1.5876  -1.5778  -1.5696  -1.5484  -1.5405  -1.5091  -1.5046  -1.4581
    -1.4550  -1.4348  -1.4110  -1.4104  -1.4099  -1.4044  -1.4019  -1.3854
    -1.3844  -1.3837  -1.3827  -1.3814  -1.3807  -1.3799  -1.3780  -1.3583
    -1.3511  -1.3418  -1.3185  -1.3180  -1.3168  -1.2951  -1.2946  -1.2900
    -1.2888  -1.2853  -1.2671  -1.2494  -1.2411  -1.2240  -1.2228  -1.2055
    -1.2026  -1.1905  -1.1817  -1.1629  -1.1610  -1.1552  -1.1470  -1.1156
    -1.1124  -1.1049  -1.1034  -1.1022  -1.0933  -1.0768  -1.0759  -1.0632
    -1.0550  -1.0529  -1.0440  -1.0421  -1.0410  -1.0341  -1.0308  -1.0196
    -1.0189  -1.0121  -1.0116  -1.0046  -1.0017  -0.9874  -0.9856  -0.9433
    -0.9411  -0.9409  -0.9391  -0.9339  -0.9288  -0.9079  -0.8978  -0.8930
    -0.8752  -0.8706  -0.8660  -0.8619  -0.8578  -0.8486  -0.8418  -0.8136
    -0.8067  -0.8015  -0.7990  -0.7812  -0.7804  -0.7657  -0.7422  -0.7338
    -0.7163  -0.7145  -0.6783  -0.6777  -0.6758  -0.6734  -0.6688  -0.6676
    -0.6672  -0.6660  -0.6613  -0.6601  -0.6287  -0.6268  -0.6266  -0.6243
    -0.6237  -0.6122  -0.6096  -0.5998  -0.5818  -0.3226  -0.3111  -0.2697
    -0.2508  -0.2351  -0.1774  -0.0254  -0.0242   0.0125   0.2891   0.2955
     0.6283   0.6404   0.6744   0.6760   0.7233   0.7278   0.8818   0.8940
     1.0127   1.0150   1.1317   1.6234   1.6610   1.6709   1.7066   1.7070
     1.8344   1.8557   1.8987   1.9072   2.0811   2.0846   2.3664   2.3905
     2.4017   2.4162   2.8397   2.8579   2.8732   2.8774   2.8902   2.8924
     2.9563   2.9568   3.1042   3.2325   3.2415   3.4224   3.4301   3.5304
     3.6006   3.6064   3.8990   3.9070   3.9531   3.9619   3.9657   4.0949
     4.1056   4.1103   4.1376   4.4040   4.4050   4.4358   4.4458   4.5521
     4.5611   4.6116   4.6332   4.8843   5.3916   5.5003   5.5087   5.5818
     5.6423   5.7109   5.7159   5.7768   5.7891   5.8007   5.8010   5.8687
     5.9122   5.9162   6.0716   6.1872   6.1948   6.2034   6.2060   6.2120
     6.2159   6.2246   6.3240   6.3702   6.3866   6.3976   6.4887   6.5209

          k = 0.2500-0.2500-0.0833 (167653 PWs)   bands (ev):

   -19.5165  -7.3547  -6.8283  -6.2992  -6.2976  -5.8604  -5.4573  -5.3589
    -5.3575  -5.1367  -5.1363  -5.0409  -5.0390  -4.9063  -4.8983  -4.7890
    -4.7008  -4.6963  -4.6756  -4.6749  -4.4947  -4.4933  -4.4923  -4.4665
    -4.4622  -4.4615  -4.4573  -4.4055  -4.4040  -4.4021  -4.4011  -4.3377
    -4.3095  -4.3092  -4.2539  -4.2494  -4.2483  -4.2130  -4.2115  -4.1981
    -4.1934  -4.1748  -4.1747  -4.1390  -4.1057  -4.1050  -4.1027  -4.0996
    -4.0986  -4.0700  -4.0402  -4.0388  -4.0095  -4.0084  -4.0055  -4.0047
    -4.0032  -3.9969  -3.9665  -3.9644  -3.9054  -3.9042  -3.8729  -3.8473
    -3.8402  -3.8357  -3.8348  -3.8130  -3.8124  -3.8013  -3.7512  -3.7505
    -3.7455  -3.7443  -3.6614  -3.6592  -3.6399  -3.6372  -3.6026  -3.6023
    -3.5860  -3.5676  -3.5616  -3.5475  -3.5170  -3.5159  -3.5146  -3.5128
    -3.4898  -3.4890  -3.4089  -3.4086  -3.4045  -3.3923  -3.3770  -3.3741
    -3.3622  -3.3616  -3.3553  -3.3545  -3.3121  -3.3113  -3.2906  -3.2886
    -3.2536  -3.2516  -3.2268  -3.2050  -3.2046  -3.1593  -3.1586  -3.1262
    -3.0989  -3.0979  -3.0969  -3.0969  -3.0930  -3.0926  -3.0675  -3.0557
    -3.0183  -3.0178  -2.9973  -2.9729  -2.9708  -2.9698  -2.9643  -2.9628
    -2.9594  -2.9590  -2.9244  -2.9230  -2.9225  -2.9176  -2.9170  -2.9123
    -2.8566  -2.8525  -2.8485  -2.8468  -2.8258  -2.8247  -2.8204  -2.7307
    -2.7213  -2.7202  -2.7118  -2.7103  -2.7058  -2.7039  -2.7031  -2.6950
    -2.6942  -2.6851  -2.6764  -2.6758  -2.6731  -2.6685  -2.6588  -2.6539
    -2.6513  -2.6304  -2.6195  -2.6184  -2.6034  -2.6027  -2.5865  -2.5857
    -2.5771  -2.5764  -2.5559  -2.5444  -2.5437  -2.5398  -2.5385  -2.5056
    -2.5021  -2.5016  -2.4443  -2.4398  -2.4280  -2.4257  -2.4151  -2.4129
    -2.3885  -2.3871  -2.3828  -2.3725  -2.3702  -2.3614  -2.3586  -2.3444
    -2.3418  -2.3153  -2.3148  -2.3064  -2.3049  -2.2956  -2.2944  -2.2821
    -2.2658  -2.2456  -2.1764  -2.1739  -2.1545  -2.1534  -2.1460  -2.1424
    -2.0941  -2.0916  -2.0787  -2.0573  -2.0464  -2.0456  -2.0264  -2.0106
    -2.0076  -1.9994  -1.9949  -1.9637  -1.9583  -1.9556  -1.9464  -1.9448
    -1.9411  -1.9390  -1.9288  -1.9140  -1.9103  -1.9029  -1.9020  -1.9016
    -1.9010  -1.8992  -1.8861  -1.8720  -1.8660  -1.8637  -1.8577  -1.8497
    -1.8447  -1.8435  -1.8404  -1.8381  -1.8327  -1.8185  -1.7978  -1.7677
    -1.7430  -1.7345  -1.7130  -1.6887  -1.6880  -1.6874  -1.6797  -1.6744
    -1.6661  -1.6602  -1.6563  -1.6477  -1.6454  -1.6430  -1.6252  -1.6159
    -1.5876  -1.5778  -1.5696  -1.5484  -1.5405  -1.5091  -1.5046  -1.4581
    -1.4550  -1.4348  -1.4110  -1.4104  -1.4099  -1.4044  -1.4019  -1.3854
    -1.3844  -1.3837  -1.3827  -1.3814  -1.3807  -1.3799  -1.3780  -1.3583
    -1.3511  -1.3418  -1.3185  -1.3180  -1.3168  -1.2951  -1.2946  -1.2900
    -1.2888  -1.2853  -1.2671  -1.2494  -1.2411  -1.2240  -1.2228  -1.2055
    -1.2026  -1.1905  -1.1817  -1.1629  -1.1610  -1.1552  -1.1470  -1.1156
    -1.1124  -1.1049  -1.1034  -1.1022  -1.0933  -1.0768  -1.0759  -1.0632
    -1.0550  -1.0529  -1.0440  -1.0421  -1.0410  -1.0341  -1.0308  -1.0196
    -1.0189  -1.0121  -1.0116  -1.0046  -1.0017  -0.9874  -0.9856  -0.9433
    -0.9411  -0.9409  -0.9391  -0.9339  -0.9288  -0.9079  -0.8978  -0.8930
    -0.8752  -0.8706  -0.8660  -0.8619  -0.8578  -0.8486  -0.8418  -0.8136
    -0.8067  -0.8015  -0.7990  -0.7812  -0.7804  -0.7657  -0.7422  -0.7338
    -0.7163  -0.7145  -0.6783  -0.6777  -0.6758  -0.6734  -0.6688  -0.6676
    -0.6672  -0.6660  -0.6613  -0.6601  -0.6287  -0.6268  -0.6266  -0.6243
    -0.6237  -0.6122  -0.6096  -0.5998  -0.5818  -0.3226  -0.3111  -0.2697
    -0.2508  -0.2351  -0.1774  -0.0254  -0.0242   0.0125   0.2891   0.2955
     0.6283   0.6404   0.6744   0.6760   0.7233   0.7278   0.8818   0.8940
     1.0127   1.0150   1.1317   1.6234   1.6610   1.6709   1.7066   1.7070
     1.8344   1.8557   1.8987   1.9072   2.0811   2.0846   2.3664   2.3905
     2.4017   2.4162   2.8397   2.8579   2.8732   2.8774   2.8902   2.8924
     2.9563   2.9568   3.1042   3.2325   3.2415   3.4224   3.4301   3.5304
     3.6006   3.6064   3.8990   3.9070   3.9531   3.9619   3.9657   4.0949
     4.1056   4.1103   4.1376   4.4040   4.4050   4.4358   4.4458   4.5521
     4.5611   4.6116   4.6332   4.8843   5.3916   5.5004   5.5087   5.5820
     5.6423   5.7109   5.7159   5.7763   5.7894   5.8007   5.8010   5.8663
     5.9123   5.9160   6.0779   6.1868   6.1948   6.2034   6.2047   6.2121
     6.2159   6.2244   6.3233   6.3612   6.3845   6.4048   6.4903   6.5247

          k =-0.2500 0.2500 0.2500 (167588 PWs)   bands (ev):

   -19.5165  -7.3547  -6.8283  -6.2992  -6.2976  -5.8604  -5.4573  -5.3589
    -5.3575  -5.1367  -5.1363  -5.0409  -5.0390  -4.9063  -4.8983  -4.7890
    -4.7008  -4.6963  -4.6756  -4.6749  -4.4947  -4.4933  -4.4923  -4.4665
    -4.4622  -4.4615  -4.4573  -4.4055  -4.4040  -4.4021  -4.4010  -4.3377
    -4.3095  -4.3092  -4.2539  -4.2495  -4.2483  -4.2130  -4.2115  -4.1981
    -4.1934  -4.1748  -4.1747  -4.1390  -4.1057  -4.1050  -4.1027  -4.0996
    -4.0986  -4.0700  -4.0402  -4.0388  -4.0095  -4.0084  -4.0055  -4.0047
    -4.0032  -3.9969  -3.9665  -3.9644  -3.9054  -3.9042  -3.8729  -3.8473
    -3.8402  -3.8357  -3.8348  -3.8130  -3.8124  -3.8013  -3.7512  -3.7505
    -3.7455  -3.7443  -3.6614  -3.6592  -3.6399  -3.6372  -3.6026  -3.6023
    -3.5860  -3.5676  -3.5616  -3.5475  -3.5170  -3.5159  -3.5146  -3.5128
    -3.4898  -3.4890  -3.4089  -3.4086  -3.4045  -3.3923  -3.3770  -3.3741
    -3.3622  -3.3616  -3.3553  -3.3545  -3.3121  -3.3113  -3.2906  -3.2886
    -3.2536  -3.2516  -3.2268  -3.2050  -3.2046  -3.1592  -3.1586  -3.1262
    -3.0989  -3.0979  -3.0969  -3.0969  -3.0930  -3.0926  -3.0675  -3.0557
    -3.0183  -3.0178  -2.9973  -2.9729  -2.9708  -2.9698  -2.9643  -2.9628
    -2.9594  -2.9590  -2.9244  -2.9230  -2.9225  -2.9176  -2.9170  -2.9123
    -2.8566  -2.8525  -2.8485  -2.8468  -2.8258  -2.8247  -2.8203  -2.7307
    -2.7213  -2.7202  -2.7118  -2.7103  -2.7058  -2.7039  -2.7031  -2.6950
    -2.6942  -2.6851  -2.6764  -2.6758  -2.6731  -2.6686  -2.6588  -2.6539
    -2.6513  -2.6304  -2.6195  -2.6184  -2.6034  -2.6027  -2.5865  -2.5857
    -2.5771  -2.5763  -2.5559  -2.5444  -2.5437  -2.5398  -2.5385  -2.5057
    -2.5021  -2.5016  -2.4443  -2.4398  -2.4280  -2.4257  -2.4151  -2.4129
    -2.3885  -2.3871  -2.3828  -2.3725  -2.3702  -2.3614  -2.3586  -2.3444
    -2.3418  -2.3153  -2.3148  -2.3064  -2.3049  -2.2956  -2.2944  -2.2821
    -2.2658  -2.2456  -2.1764  -2.1739  -2.1545  -2.1534  -2.1460  -2.1424
    -2.0941  -2.0915  -2.0787  -2.0573  -2.0464  -2.0456  -2.0264  -2.0106
    -2.0076  -1.9994  -1.9949  -1.9637  -1.9583  -1.9556  -1.9464  -1.9448
    -1.9411  -1.9390  -1.9288  -1.9140  -1.9103  -1.9029  -1.9020  -1.9016
    -1.9010  -1.8992  -1.8861  -1.8720  -1.8660  -1.8637  -1.8577  -1.8497
    -1.8447  -1.8435  -1.8404  -1.8381  -1.8327  -1.8185  -1.7978  -1.7677
    -1.7430  -1.7345  -1.7130  -1.6887  -1.6880  -1.6874  -1.6797  -1.6744
    -1.6661  -1.6601  -1.6563  -1.6477  -1.6454  -1.6430  -1.6252  -1.6158
    -1.5876  -1.5778  -1.5696  -1.5484  -1.5405  -1.5091  -1.5046  -1.4581
    -1.4550  -1.4348  -1.4110  -1.4104  -1.4099  -1.4044  -1.4019  -1.3854
    -1.3844  -1.3837  -1.3827  -1.3814  -1.3807  -1.3799  -1.3779  -1.3583
    -1.3511  -1.3418  -1.3185  -1.3180  -1.3168  -1.2951  -1.2946  -1.2900
    -1.2888  -1.2853  -1.2671  -1.2494  -1.2411  -1.2240  -1.2228  -1.2055
    -1.2026  -1.1905  -1.1817  -1.1630  -1.1610  -1.1552  -1.1470  -1.1156
    -1.1124  -1.1049  -1.1034  -1.1022  -1.0933  -1.0768  -1.0759  -1.0631
    -1.0550  -1.0529  -1.0440  -1.0421  -1.0410  -1.0341  -1.0308  -1.0196
    -1.0189  -1.0121  -1.0116  -1.0046  -1.0017  -0.9874  -0.9856  -0.9433
    -0.9411  -0.9409  -0.9391  -0.9340  -0.9288  -0.9079  -0.8978  -0.8930
    -0.8752  -0.8706  -0.8660  -0.8619  -0.8578  -0.8486  -0.8418  -0.8136
    -0.8067  -0.8015  -0.7990  -0.7812  -0.7804  -0.7657  -0.7422  -0.7338
    -0.7163  -0.7145  -0.6783  -0.6777  -0.6758  -0.6734  -0.6688  -0.6676
    -0.6672  -0.6660  -0.6613  -0.6601  -0.6287  -0.6268  -0.6266  -0.6243
    -0.6237  -0.6122  -0.6096  -0.5998  -0.5818  -0.3226  -0.3111  -0.2697
    -0.2508  -0.2351  -0.1774  -0.0254  -0.0242   0.0125   0.2891   0.2955
     0.6283   0.6404   0.6744   0.6760   0.7233   0.7278   0.8818   0.8940
     1.0127   1.0150   1.1317   1.6234   1.6610   1.6709   1.7066   1.7070
     1.8344   1.8557   1.8987   1.9072   2.0811   2.0846   2.3664   2.3905
     2.4017   2.4162   2.8397   2.8579   2.8732   2.8774   2.8902   2.8924
     2.9563   2.9568   3.1042   3.2325   3.2415   3.4224   3.4301   3.5304
     3.6006   3.6064   3.8990   3.9071   3.9531   3.9619   3.9657   4.0949
     4.1056   4.1103   4.1376   4.4040   4.4050   4.4358   4.4458   4.5521
     4.5611   4.6116   4.6332   4.8844   5.3871   5.5003   5.5087   5.5814
     5.6326   5.7109   5.7156   5.7751   5.7889   5.8007   5.8010   5.8613
     5.9123   5.9398   6.1313   6.1539   6.1942   6.2030   6.2050   6.2106
     6.2159   6.2240   6.3088   6.3776   6.3862   6.4815   6.5112   6.5525

     the Fermi energy is     0.9581 ev

!    total energy              =   -7379.98359354 Ry
     Harris-Foulkes estimate   =   -7379.98359355 Ry
     estimated scf accuracy    <          3.0E-09 Ry

     The total energy is the sum of the following terms:

     one-electron contribution =  -48754.44958624 Ry
     hartree contribution      =   24926.86299650 Ry
     xc contribution           =   -3556.25133895 Ry
     ewald contribution        =   20003.85318274 Ry
     smearing contrib. (-TS)   =       0.00115241 Ry

     convergence has been achieved in  27 iterations

     negative rho (up, down):  1.970E+00 0.000E+00

     Forces acting on atoms (Ry/au):

     atom    1 type  3   force =     0.00163129    0.00796072    0.00281407
     atom    2 type  2   force =    -0.00854832   -0.00656378   -0.00135869
     atom    3 type  2   force =     0.00417740   -0.00261946   -0.00001885
     atom    4 type  1   force =    -0.00019772   -0.00023570    0.01838999
     atom    5 type  1   force =    -0.00001146   -0.00019358    0.01832438
     atom    6 type  1   force =    -0.00004771   -0.00020158    0.01827291
     atom    7 type  1   force =     0.00002270   -0.00001932    0.01810144
     atom    8 type  1   force =     0.00000086   -0.00006477    0.01807251
     atom    9 type  1   force =     0.00021451    0.00005151    0.01820605
     atom   10 type  1   force =    -0.00023095   -0.00000785    0.01841230
     atom   11 type  1   force =    -0.00006185   -0.00001105    0.01802054
     atom   12 type  1   force =     0.00004792    0.00001147    0.01803558
     atom   13 type  1   force =     0.00000300   -0.00002978    0.01806378
     atom   14 type  1   force =     0.00002260    0.00004316    0.01798836
     atom   15 type  1   force =     0.00021489   -0.00008847    0.01824795
     atom   16 type  1   force =    -0.00022056    0.00007922    0.01828211
     atom   17 type  1   force =     0.00003231    0.00000708    0.01800093
     atom   18 type  1   force =    -0.00007878   -0.00000363    0.01802678
     atom   19 type  1   force =    -0.00000462    0.00023589    0.01819850
     atom   20 type  1   force =    -0.00000793    0.00022280    0.01840754
     atom   21 type  1   force =     0.00030968    0.00021269    0.01846740
     atom   22 type  1   force =    -0.00017073   -0.00045916   -0.00242280
     atom   23 type  1   force =     0.00000173   -0.00012352   -0.00238137
     atom   24 type  1   force =     0.00040611   -0.00038199   -0.00241422
     atom   25 type  1   force =    -0.00050781   -0.00015035   -0.00253584
     atom   26 type  1   force =     0.00000825    0.00004184   -0.00245794
     atom   27 type  1   force =     0.00010253    0.00003853   -0.00254349
     atom   28 type  1   force =     0.00030274    0.00000699   -0.00238376
     atom   29 type  1   force =     0.00005099    0.00009556   -0.00270608
     atom   30 type  1   force =     0.00022159   -0.00002308   -0.00244213
     atom   31 type  1   force =    -0.00042212    0.00011583   -0.00254122
     atom   32 type  1   force =     0.00008635    0.00004890   -0.00258460
     atom   33 type  1   force =    -0.00001584    0.00001527   -0.00261379
     atom   34 type  1   force =    -0.00003552    0.00005960   -0.00246525
     atom   35 type  1   force =    -0.00002786   -0.00020329   -0.00245189
     atom   36 type  1   force =     0.00032473    0.00003656   -0.00252146
     atom   37 type  1   force =    -0.00034661    0.00041311   -0.00237417
     atom   38 type  1   force =    -0.00010197    0.00020311   -0.00253411
     atom   39 type  1   force =     0.00016373    0.00028819   -0.00254323
     atom   40 type  1   force =    -0.00025262   -0.00032796    0.00139758
     atom   41 type  1   force =    -0.00006472   -0.00062026    0.00113159
     atom   42 type  1   force =     0.00000191   -0.00047202    0.00130693
     atom   43 type  1   force =    -0.00025679   -0.00000938    0.00150086
     atom   44 type  1   force =     0.00055574    0.00024647    0.00182390
     atom   45 type  1   force =    -0.00014589    0.00019958    0.00161081
     atom   46 type  1   force =    -0.00027886   -0.00000122    0.00150164
     atom   47 type  1   force =     0.00007199    0.00005986    0.00149104
     atom   48 type  1   force =    -0.00006274   -0.00001678    0.00155154
     atom   49 type  1   force =    -0.00032738   -0.00010290    0.00117588
     atom   50 type  1   force =     0.00019452    0.00038796    0.00151293
     atom   51 type  1   force =     0.00040118    0.00004521    0.00131314
     atom   52 type  1   force =    -0.00013470   -0.00001630    0.00147340
     atom   53 type  1   force =     0.00014796   -0.00030109    0.00190905
     atom   54 type  1   force =     0.00028013   -0.00008969    0.00149645
     atom   55 type  1   force =    -0.00002748    0.00039648    0.00143493
     atom   56 type  1   force =    -0.00004509    0.00036582    0.00150763
     atom   57 type  1   force =     0.00030100    0.00037063    0.00147484
     atom   58 type  1   force =     0.00003560   -0.00014750   -0.01717276
     atom   59 type  1   force =     0.00003326   -0.00000579   -0.01689989
     atom   60 type  1   force =     0.00022068   -0.00021056   -0.01727816
     atom   61 type  1   force =    -0.00017282   -0.00004135   -0.01715513
     atom   62 type  1   force =     0.00001800    0.00003752   -0.01606462
     atom   63 type  1   force =     0.00060767   -0.00091716   -0.01748469
     atom   64 type  1   force =     0.00011312   -0.00006800   -0.01687385
     atom   65 type  1   force =     0.00120839    0.00012907   -0.01817457
     atom   66 type  1   force =     0.00027702   -0.00008163   -0.01739590
     atom   67 type  1   force =    -0.00018046    0.00000942   -0.01721283
     atom   68 type  1   force =    -0.00073767    0.00040622   -0.01756179
     atom   69 type  1   force =     0.00088743    0.00086841   -0.01804170
     atom   70 type  1   force =    -0.00006543    0.00007837   -0.01707041
     atom   71 type  1   force =     0.00001735    0.00017785   -0.01736656
     atom   72 type  1   force =     0.00033128    0.00015213   -0.01715588
     atom   73 type  1   force =    -0.00027184    0.00016507   -0.01737123
     atom   74 type  1   force =    -0.00002508    0.00026734   -0.01717638
     atom   75 type  1   force =     0.00003777    0.00025849   -0.01719598

     Total force =     0.108184     Total SCF correction =     0.000304

     BFGS Geometry Optimization

     number of scf cycles    =   1
     number of bfgs steps    =   0

     energy   new            =   -7379.9835935445 Ry

     new trust radius        =       0.0184712207 bohr
     new conv_thr            =       0.0000000100 Ry


ATOMIC_POSITIONS (angstrom)
O        6.381468054   4.257948524   9.375533826
H        5.775112329   3.669510585   8.873282550
H        6.965563197   3.641423399   9.859144827
Au      -0.000104626  -0.000124725   0.009731563
Au       4.253731937  -0.000102437   0.009696843
Au       8.507450753  -0.000106670   0.009669609
Au       2.126881015   2.126858779   0.009578867
Au       6.380607456   2.126834723   0.009563560
Au      10.634457512   2.126896257   0.009634226
Au      -0.000122215   4.253733846   0.009743368
Au       4.253705273   4.253732150   0.009536057
Au       8.507501358   4.253744067   0.009544017
Au       2.126870587   6.380591242   0.009558940
Au       6.380618961   6.380629840   0.009519031
Au      10.634457714   6.380560186   0.009656401
Au      -0.000116715   8.507517923   0.009674474
Au       4.253755098   8.507479747   0.009525684
Au       8.507434310   8.507474077   0.009539360
Au       2.126866554  10.634468826   0.009630233
Au       6.380602805  10.634461899   0.009740849
Au      10.634507877  10.634456551   0.009772527
Au       2.126778654  -0.000242979   2.125586910
Au       6.380607914  -0.000065361   2.125608831
Au      10.634558905  -0.000202139   2.125591450
Au      -0.000268723   2.126789438   2.125527092
Au       4.253742366   2.126891143   2.125568313
Au       8.507530256   2.126889389   2.125523044
Au       2.127029202   4.253741701   2.125607571
Au       6.380633981   4.253788570   2.125437002
Au      10.634461259   4.253725788   2.125576682
Au      -0.000223376   6.380668297   2.125524243
Au       4.253783697   6.380632874   2.125501286
Au       8.507467616   6.380615081   2.125485842
Au       2.126850205   8.507507538   2.125564447
Au       6.380592258   8.507368426   2.125571515
Au      10.634515840   8.507495348   2.125534702
Au      -0.000183419  10.634562608   2.125612641
Au       4.253684037  10.634451484   2.125528005
Au       8.507562643  10.634496504   2.125523182
Au      -0.000365581  -0.000405446   4.258639825
Au       4.253700362  -0.000558678   4.258492229
Au       8.507493162  -0.000483277   4.258596363
Au      -0.000366341   4.253729642   4.258687639
Au       4.254028956   4.253865296   4.258853088
Au       8.507412023   4.253841328   4.258752375
Au      -0.000381059   8.507491508   4.258699398
Au       4.253773808   8.507520899   4.258688995
Au       8.507457771   8.507482088   4.258731367
Au       2.126681044   2.126799833   4.258529186
Au       6.380702953   2.127060361   4.258699655
Au      10.634798897   2.126876293   4.258598595
Au       2.126783780   6.380591389   4.258678735
Au       6.380679600   6.380441971   4.258900870
Au      10.634732337   6.380554327   4.258687300
Au       2.126837824  10.634796410   4.258663042
Au       6.380577927  10.634777683   4.258693219
Au      10.634744352  10.634781197   4.258681258
Au       2.126881953  -0.000219668   6.364842342
Au       6.380621296  -0.000145482   6.364991341
Au      10.634611657  -0.000253671   6.364676932
Au      -0.000233069   2.126841237   6.364851673
Au       4.253742858   2.126885421   6.365543500
Au       8.507801011   2.126380173   6.364794924
Au       2.126925425   4.253697347   6.365115269
Au       6.381244263   4.253804192   6.364427118
Au      10.634638936   4.253691314   6.364733668
Au      -0.000237915   6.380608678   6.364825740
Au       4.253345533   6.380819774   6.364751387
Au       8.507948053   6.381065416   6.364500029
Au       2.126830886   8.507520920   6.365014151
Au       6.380615057   8.507572559   6.364857297
Au      10.634667098   8.507560903   6.364860084
Au      -0.000286094  10.634582228   6.364627678
Au       4.253721241  10.634633812   6.364849836
Au       8.507500386  10.634628576   6.364838866



     Writing output data file 6510999.save
     Check: negative starting charge=   -1.945168
     NEW-OLD atomic charge density approx. for the potential
     Check: negative starting charge=   -1.943829

     negative rho (up, down):  1.970E+00 0.000E+00

     total cpu time spent up to now is     3683.8 secs

     per-process dynamical memory:   723.4 Mb

     Self-consistent Calculation

     iteration #  1     ecut=    50.00 Ry     beta=0.70
     Davidson diagonalization with overlap
     ethr =  1.00E-06,  avg # of iterations =  4.0

     Threshold (ethr) on eigenvalues was too large:
     Diagonalizing with lowered threshold

     Davidson diagonalization with overlap
     ethr =  9.94E-08,  avg # of iterations =  1.0

     negative rho (up, down):  1.969E+00 0.000E+00

     total cpu time spent up to now is     4036.9 secs

     total energy              =   -7379.99430878 Ry
     Harris-Foulkes estimate   =   -7379.99490837 Ry
     estimated scf accuracy    <       0.00081665 Ry

     iteration #  2     ecut=    50.00 Ry     beta=0.70
     Davidson diagonalization with overlap
     ethr =  1.02E-07,  avg # of iterations =  8.2

     negative rho (up, down):  1.969E+00 0.000E+00

     total cpu time spent up to now is     4230.7 secs

     total energy              =   -7379.99306100 Ry
     Harris-Foulkes estimate   =   -7379.99640840 Ry
     estimated scf accuracy    <       0.01554690 Ry

     iteration #  3     ecut=    50.00 Ry     beta=0.70
     Davidson diagonalization with overlap
     ethr =  1.02E-07,  avg # of iterations =  8.2

     negative rho (up, down):  1.969E+00 0.000E+00

     total cpu time spent up to now is     4418.0 secs

     total energy              =   -7379.99472244 Ry
     Harris-Foulkes estimate   =   -7379.99486540 Ry
     estimated scf accuracy    <       0.00048784 Ry

     iteration #  4     ecut=    50.00 Ry     beta=0.70
     Davidson diagonalization with overlap
     ethr =  6.10E-08,  avg # of iterations =  3.0

     negative rho (up, down):  1.969E+00 0.000E+00

     total cpu time spent up to now is     4528.1 secs

     total energy              =   -7379.99478039 Ry
     Harris-Foulkes estimate   =   -7379.99480022 Ry
     estimated scf accuracy    <       0.00004508 Ry

     iteration #  5     ecut=    50.00 Ry     beta=0.70
     Davidson diagonalization with overlap
     ethr =  5.63E-09,  avg # of iterations =  2.0

     negative rho (up, down):  1.969E+00 0.000E+00

     total cpu time spent up to now is     4650.9 secs

     total energy              =   -7379.99476058 Ry
     Harris-Foulkes estimate   =   -7379.99483247 Ry
     estimated scf accuracy    <       0.00061381 Ry

     iteration #  6     ecut=    50.00 Ry     beta=0.70
     Davidson diagonalization with overlap
     ethr =  5.63E-09,  avg # of iterations =  2.0

     negative rho (up, down):  1.969E+00 0.000E+00

     total cpu time spent up to now is     4760.4 secs

     total energy              =   -7379.99479294 Ry
     Harris-Foulkes estimate   =   -7379.99479911 Ry
     estimated scf accuracy    <       0.00002885 Ry

     iteration #  7     ecut=    50.00 Ry     beta=0.70
     Davidson diagonalization with overlap
     ethr =  3.61E-09,  avg # of iterations =  2.0

     negative rho (up, down):  1.969E+00 0.000E+00

     total cpu time spent up to now is     4859.6 secs

     total energy              =   -7379.99479595 Ry
     Harris-Foulkes estimate   =   -7379.99479783 Ry
     estimated scf accuracy    <       0.00001043 Ry

     iteration #  8     ecut=    50.00 Ry     beta=0.70
     Davidson diagonalization with overlap
     ethr =  1.30E-09,  avg # of iterations =  2.0

     negative rho (up, down):  1.969E+00 0.000E+00

     total cpu time spent up to now is     4961.5 secs

     total energy              =   -7379.99479681 Ry
     Harris-Foulkes estimate   =   -7379.99479709 Ry
     estimated scf accuracy    <       0.00000078 Ry

     iteration #  9     ecut=    50.00 Ry     beta=0.70
     Davidson diagonalization with overlap
     ethr =  9.80E-11,  avg # of iterations =  3.0

     negative rho (up, down):  1.969E+00 0.000E+00

     total cpu time spent up to now is     5079.3 secs

     total energy              =   -7379.99479694 Ry
     Harris-Foulkes estimate   =   -7379.99479705 Ry
     estimated scf accuracy    <       0.00000038 Ry

     iteration # 10     ecut=    50.00 Ry     beta=0.70
     Davidson diagonalization with overlap
     ethr =  4.77E-11,  avg # of iterations =  2.0

     negative rho (up, down):  1.969E+00 0.000E+00

     total cpu time spent up to now is     5181.6 secs

     total energy              =   -7379.99479699 Ry
     Harris-Foulkes estimate   =   -7379.99479703 Ry
     estimated scf accuracy    <       0.00000014 Ry

     iteration # 11     ecut=    50.00 Ry     beta=0.70
     Davidson diagonalization with overlap
     ethr =  1.71E-11,  avg # of iterations =  2.0

     negative rho (up, down):  1.969E+00 0.000E+00

     total cpu time spent up to now is     5285.2 secs

     total energy              =   -7379.99479701 Ry
     Harris-Foulkes estimate   =   -7379.99479701 Ry
     estimated scf accuracy    <       0.00000001 Ry

     iteration # 12     ecut=    50.00 Ry     beta=0.70
     Davidson diagonalization with overlap
     ethr =  1.65E-12,  avg # of iterations =  3.0

     negative rho (up, down):  1.969E+00 0.000E+00

     total cpu time spent up to now is     5424.6 secs

     total energy              =   -7379.99479701 Ry
     Harris-Foulkes estimate   =   -7379.99479702 Ry
     estimated scf accuracy    <       0.00000006 Ry

     iteration # 13     ecut=    50.00 Ry     beta=0.70
     Davidson diagonalization with overlap
     ethr =  1.65E-12,  avg # of iterations =  3.0

     negative rho (up, down):  1.969E+00 0.000E+00

     total cpu time spent up to now is     5543.7 secs

     End of self-consistent calculation

          k = 0.2500 0.2500 0.0833 (167653 PWs)   bands (ev):

   -19.4457  -7.2684  -6.8390  -6.3096  -6.3086  -5.8706  -5.4747  -5.3688
    -5.3683  -5.1457  -5.1454  -5.0575  -5.0563  -4.9203  -4.9062  -4.7983
    -4.7088  -4.7048  -4.6865  -4.6860  -4.5012  -4.5007  -4.5004  -4.4744
    -4.4712  -4.4705  -4.4660  -4.4202  -4.4193  -4.4107  -4.4103  -4.3434
    -4.3180  -4.3178  -4.2592  -4.2576  -4.2562  -4.2197  -4.2188  -4.2054
    -4.2010  -4.1831  -4.1829  -4.1473  -4.1150  -4.1127  -4.1124  -4.1065
    -4.1062  -4.0866  -4.0555  -4.0533  -4.0157  -4.0151  -4.0144  -4.0139
    -4.0118  -4.0059  -3.9753  -3.9735  -3.9183  -3.9175  -3.8878  -3.8639
    -3.8560  -3.8476  -3.8469  -3.8196  -3.8190  -3.8138  -3.7582  -3.7578
    -3.7522  -3.7517  -3.6731  -3.6708  -3.6558  -3.6503  -3.6146  -3.6091
    -3.5995  -3.5772  -3.5753  -3.5551  -3.5293  -3.5254  -3.5234  -3.5207
    -3.5014  -3.5005  -3.4231  -3.4174  -3.4165  -3.4089  -3.3962  -3.3918
    -3.3701  -3.3696  -3.3693  -3.3689  -3.3198  -3.3193  -3.3065  -3.3042
    -3.2683  -3.2662  -3.2244  -3.2229  -3.2224  -3.1634  -3.1628  -3.1275
    -3.1108  -3.1099  -3.1024  -3.1018  -3.0992  -3.0984  -3.0805  -3.0698
    -3.0306  -3.0301  -3.0079  -2.9779  -2.9760  -2.9746  -2.9735  -2.9722
    -2.9698  -2.9696  -2.9265  -2.9263  -2.9249  -2.9241  -2.9182  -2.9175
    -2.8597  -2.8558  -2.8533  -2.8523  -2.8367  -2.8360  -2.8168  -2.7327
    -2.7320  -2.7313  -2.7095  -2.7085  -2.7082  -2.7050  -2.7029  -2.6984
    -2.6976  -2.6844  -2.6817  -2.6793  -2.6787  -2.6756  -2.6618  -2.6579
    -2.6572  -2.6247  -2.6195  -2.6186  -2.6060  -2.6054  -2.5908  -2.5904
    -2.5800  -2.5797  -2.5618  -2.5537  -2.5533  -2.5478  -2.5460  -2.5113
    -2.5107  -2.5042  -2.4489  -2.4448  -2.4285  -2.4259  -2.4218  -2.4194
    -2.3924  -2.3875  -2.3860  -2.3756  -2.3738  -2.3621  -2.3598  -2.3423
    -2.3398  -2.3190  -2.3184  -2.3091  -2.3082  -2.2964  -2.2959  -2.2861
    -2.2691  -2.2560  -2.1760  -2.1741  -2.1639  -2.1632  -2.1578  -2.1549
    -2.0967  -2.0949  -2.0771  -2.0724  -2.0468  -2.0457  -2.0390  -2.0234
    -2.0219  -2.0091  -1.9906  -1.9658  -1.9608  -1.9531  -1.9504  -1.9495
    -1.9488  -1.9477  -1.9294  -1.9155  -1.9128  -1.9053  -1.9036  -1.9024
    -1.9004  -1.8991  -1.8973  -1.8697  -1.8634  -1.8607  -1.8561  -1.8539
    -1.8532  -1.8486  -1.8426  -1.8415  -1.8397  -1.8228  -1.8036  -1.7638
    -1.7363  -1.7242  -1.7091  -1.7007  -1.6878  -1.6871  -1.6693  -1.6674
    -1.6625  -1.6595  -1.6546  -1.6544  -1.6531  -1.6421  -1.6243  -1.6138
    -1.5867  -1.5766  -1.5751  -1.5496  -1.5415  -1.5083  -1.5027  -1.4537
    -1.4509  -1.4310  -1.4185  -1.4079  -1.4073  -1.3991  -1.3968  -1.3855
    -1.3830  -1.3826  -1.3816  -1.3801  -1.3788  -1.3778  -1.3762  -1.3577
    -1.3529  -1.3417  -1.3151  -1.3144  -1.3135  -1.2983  -1.2966  -1.2931
    -1.2881  -1.2864  -1.2634  -1.2455  -1.2385  -1.2214  -1.2182  -1.2017
    -1.2008  -1.1866  -1.1783  -1.1549  -1.1541  -1.1532  -1.1444  -1.1110
    -1.1094  -1.1016  -1.1006  -1.0998  -1.0907  -1.0685  -1.0673  -1.0584
    -1.0532  -1.0513  -1.0408  -1.0393  -1.0391  -1.0304  -1.0261  -1.0126
    -1.0110  -1.0085  -1.0083  -1.0018  -0.9964  -0.9855  -0.9830  -0.9402
    -0.9383  -0.9365  -0.9363  -0.9318  -0.9260  -0.9047  -0.8957  -0.8917
    -0.8692  -0.8673  -0.8626  -0.8586  -0.8506  -0.8462  -0.8393  -0.8081
    -0.8025  -0.7985  -0.7962  -0.7748  -0.7742  -0.7617  -0.7341  -0.7265
    -0.7121  -0.7116  -0.6726  -0.6705  -0.6700  -0.6697  -0.6661  -0.6635
    -0.6602  -0.6587  -0.6575  -0.6534  -0.6213  -0.6210  -0.6198  -0.6185
    -0.6175  -0.6068  -0.6037  -0.5955  -0.5761  -0.3236  -0.3130  -0.2606
    -0.2472  -0.2333  -0.1830  -0.0243  -0.0235   0.0219   0.2955   0.2995
     0.6453   0.6527   0.6741   0.6747   0.7251   0.7262   0.8980   0.9057
     1.0121   1.0143   1.1448   1.6345   1.6593   1.6664   1.7057   1.7067
     1.8563   1.8638   1.9206   1.9254   2.0842   2.0852   2.3835   2.4102
     2.4128   2.4180   2.8654   2.8717   2.8739   2.8748   2.8909   2.8919
     2.9529   2.9546   3.1206   3.2486   3.2509   3.4349   3.4359   3.5303
     3.6217   3.6240   3.9190   3.9209   3.9627   3.9635   3.9737   4.0962
     4.1066   4.1218   4.1460   4.4035   4.4066   4.4398   4.4410   4.5698
     4.5728   4.6342   4.6434   4.8983   5.3837   5.5003   5.5115   5.5965
     5.6518   5.7234   5.7257   5.7840   5.7845   5.7980   5.8018   5.8701
     5.9155   5.9307   6.0736   6.1851   6.2129   6.2165   6.2209   6.2218
     6.2306   6.2440   6.3246   6.3751   6.3964   6.4108   6.4923   6.5283

          k = 0.2500 0.2500-0.2500 (167588 PWs)   bands (ev):

   -19.4457  -7.2684  -6.8390  -6.3096  -6.3086  -5.8706  -5.4747  -5.3688
    -5.3683  -5.1457  -5.1454  -5.0575  -5.0563  -4.9203  -4.9062  -4.7983
    -4.7088  -4.7048  -4.6865  -4.6860  -4.5012  -4.5007  -4.5004  -4.4744
    -4.4712  -4.4705  -4.4660  -4.4202  -4.4193  -4.4107  -4.4103  -4.3434
    -4.3180  -4.3178  -4.2592  -4.2576  -4.2562  -4.2197  -4.2188  -4.2054
    -4.2010  -4.1831  -4.1829  -4.1473  -4.1150  -4.1127  -4.1124  -4.1065
    -4.1063  -4.0866  -4.0555  -4.0533  -4.0157  -4.0151  -4.0144  -4.0139
    -4.0118  -4.0059  -3.9753  -3.9735  -3.9183  -3.9175  -3.8878  -3.8639
    -3.8560  -3.8476  -3.8469  -3.8196  -3.8190  -3.8138  -3.7582  -3.7578
    -3.7522  -3.7517  -3.6731  -3.6708  -3.6558  -3.6503  -3.6146  -3.6091
    -3.5995  -3.5772  -3.5753  -3.5551  -3.5293  -3.5254  -3.5234  -3.5207
    -3.5014  -3.5005  -3.4231  -3.4174  -3.4165  -3.4090  -3.3962  -3.3918
    -3.3701  -3.3696  -3.3693  -3.3689  -3.3197  -3.3192  -3.3064  -3.3042
    -3.2683  -3.2662  -3.2244  -3.2229  -3.2224  -3.1634  -3.1628  -3.1275
    -3.1108  -3.1099  -3.1024  -3.1018  -3.0992  -3.0984  -3.0805  -3.0698
    -3.0306  -3.0301  -3.0079  -2.9779  -2.9760  -2.9746  -2.9735  -2.9722
    -2.9698  -2.9696  -2.9265  -2.9263  -2.9249  -2.9241  -2.9181  -2.9175
    -2.8597  -2.8558  -2.8533  -2.8523  -2.8367  -2.8360  -2.8168  -2.7327
    -2.7320  -2.7313  -2.7095  -2.7085  -2.7082  -2.7050  -2.7029  -2.6984
    -2.6976  -2.6844  -2.6817  -2.6793  -2.6787  -2.6756  -2.6618  -2.6579
    -2.6572  -2.6247  -2.6195  -2.6186  -2.6060  -2.6054  -2.5908  -2.5904
    -2.5800  -2.5797  -2.5618  -2.5537  -2.5533  -2.5478  -2.5460  -2.5113
    -2.5107  -2.5042  -2.4489  -2.4448  -2.4285  -2.4259  -2.4218  -2.4194
    -2.3924  -2.3875  -2.3860  -2.3756  -2.3738  -2.3621  -2.3598  -2.3423
    -2.3398  -2.3190  -2.3184  -2.3091  -2.3082  -2.2964  -2.2959  -2.2861
    -2.2691  -2.2560  -2.1760  -2.1741  -2.1639  -2.1632  -2.1578  -2.1549
    -2.0967  -2.0949  -2.0771  -2.0724  -2.0468  -2.0457  -2.0390  -2.0234
    -2.0219  -2.0091  -1.9906  -1.9658  -1.9608  -1.9531  -1.9504  -1.9495
    -1.9488  -1.9477  -1.9294  -1.9155  -1.9128  -1.9053  -1.9036  -1.9023
    -1.9004  -1.8991  -1.8973  -1.8697  -1.8634  -1.8607  -1.8561  -1.8539
    -1.8532  -1.8486  -1.8427  -1.8415  -1.8397  -1.8228  -1.8035  -1.7638
    -1.7363  -1.7242  -1.7091  -1.7007  -1.6878  -1.6871  -1.6693  -1.6674
    -1.6625  -1.6595  -1.6546  -1.6544  -1.6531  -1.6421  -1.6243  -1.6138
    -1.5867  -1.5765  -1.5751  -1.5496  -1.5415  -1.5083  -1.5027  -1.4537
    -1.4509  -1.4310  -1.4185  -1.4079  -1.4073  -1.3991  -1.3968  -1.3855
    -1.3829  -1.3826  -1.3816  -1.3801  -1.3788  -1.3778  -1.3762  -1.3577
    -1.3529  -1.3417  -1.3151  -1.3144  -1.3135  -1.2983  -1.2966  -1.2931
    -1.2881  -1.2864  -1.2634  -1.2455  -1.2385  -1.2214  -1.2182  -1.2017
    -1.2008  -1.1866  -1.1783  -1.1549  -1.1541  -1.1532  -1.1444  -1.1110
    -1.1094  -1.1016  -1.1006  -1.0998  -1.0907  -1.0685  -1.0673  -1.0584
    -1.0532  -1.0513  -1.0408  -1.0393  -1.0391  -1.0304  -1.0261  -1.0126
    -1.0110  -1.0085  -1.0083  -1.0018  -0.9964  -0.9855  -0.9830  -0.9402
    -0.9383  -0.9365  -0.9363  -0.9318  -0.9260  -0.9047  -0.8957  -0.8917
    -0.8692  -0.8673  -0.8626  -0.8586  -0.8506  -0.8462  -0.8393  -0.8081
    -0.8025  -0.7985  -0.7962  -0.7748  -0.7742  -0.7617  -0.7341  -0.7265
    -0.7121  -0.7116  -0.6727  -0.6705  -0.6700  -0.6697  -0.6661  -0.6636
    -0.6602  -0.6587  -0.6575  -0.6534  -0.6213  -0.6210  -0.6198  -0.6185
    -0.6175  -0.6068  -0.6037  -0.5955  -0.5761  -0.3236  -0.3130  -0.2606
    -0.2472  -0.2333  -0.1830  -0.0243  -0.0235   0.0219   0.2955   0.2995
     0.6453   0.6527   0.6741   0.6747   0.7251   0.7262   0.8980   0.9057
     1.0121   1.0143   1.1448   1.6345   1.6593   1.6664   1.7057   1.7067
     1.8563   1.8638   1.9206   1.9254   2.0842   2.0852   2.3835   2.4102
     2.4128   2.4180   2.8654   2.8717   2.8739   2.8748   2.8909   2.8919
     2.9529   2.9546   3.1206   3.2486   3.2509   3.4349   3.4359   3.5303
     3.6217   3.6240   3.9190   3.9209   3.9627   3.9635   3.9737   4.0963
     4.1066   4.1218   4.1460   4.4035   4.4066   4.4398   4.4410   4.5698
     4.5728   4.6342   4.6434   4.8984   5.3793   5.5002   5.5111   5.5966
     5.6422   5.7233   5.7255   5.7827   5.7841   5.7980   5.8018   5.8589
     5.9289   5.9448   6.1361   6.1584   6.1982   6.2154   6.2200   6.2217
     6.2299   6.2438   6.3170   6.3826   6.4014   6.4785   6.5234   6.5378

          k =-0.2500-0.2500 0.0833 (167653 PWs)   bands (ev):

   -19.4457  -7.2684  -6.8390  -6.3096  -6.3086  -5.8706  -5.4747  -5.3688
    -5.3683  -5.1457  -5.1454  -5.0575  -5.0563  -4.9203  -4.9062  -4.7983
    -4.7088  -4.7048  -4.6865  -4.6860  -4.5012  -4.5007  -4.5004  -4.4744
    -4.4712  -4.4705  -4.4660  -4.4202  -4.4193  -4.4107  -4.4103  -4.3434
    -4.3180  -4.3178  -4.2592  -4.2576  -4.2562  -4.2197  -4.2188  -4.2054
    -4.2010  -4.1831  -4.1829  -4.1473  -4.1150  -4.1127  -4.1124  -4.1065
    -4.1063  -4.0866  -4.0555  -4.0533  -4.0157  -4.0151  -4.0144  -4.0139
    -4.0118  -4.0059  -3.9753  -3.9735  -3.9183  -3.9175  -3.8878  -3.8639
    -3.8560  -3.8476  -3.8469  -3.8196  -3.8190  -3.8138  -3.7582  -3.7578
    -3.7522  -3.7517  -3.6731  -3.6708  -3.6558  -3.6503  -3.6146  -3.6091
    -3.5995  -3.5772  -3.5753  -3.5551  -3.5293  -3.5254  -3.5234  -3.5207
    -3.5014  -3.5005  -3.4231  -3.4174  -3.4165  -3.4089  -3.3962  -3.3918
    -3.3701  -3.3696  -3.3693  -3.3689  -3.3198  -3.3193  -3.3065  -3.3042
    -3.2683  -3.2662  -3.2244  -3.2229  -3.2224  -3.1634  -3.1628  -3.1275
    -3.1108  -3.1099  -3.1024  -3.1018  -3.0992  -3.0984  -3.0805  -3.0698
    -3.0306  -3.0301  -3.0079  -2.9779  -2.9760  -2.9746  -2.9735  -2.9722
    -2.9698  -2.9696  -2.9265  -2.9263  -2.9249  -2.9241  -2.9182  -2.9175
    -2.8597  -2.8558  -2.8533  -2.8523  -2.8367  -2.8360  -2.8168  -2.7327
    -2.7320  -2.7313  -2.7095  -2.7085  -2.7082  -2.7050  -2.7029  -2.6984
    -2.6976  -2.6844  -2.6817  -2.6793  -2.6787  -2.6756  -2.6618  -2.6579
    -2.6572  -2.6247  -2.6195  -2.6186  -2.6060  -2.6054  -2.5908  -2.5904
    -2.5800  -2.5797  -2.5618  -2.5537  -2.5533  -2.5478  -2.5460  -2.5113
    -2.5107  -2.5042  -2.4489  -2.4448  -2.4285  -2.4259  -2.4218  -2.4194
    -2.3924  -2.3875  -2.3860  -2.3756  -2.3738  -2.3621  -2.3598  -2.3423
    -2.3398  -2.3190  -2.3184  -2.3091  -2.3082  -2.2964  -2.2959  -2.2861
    -2.2691  -2.2560  -2.1760  -2.1741  -2.1639  -2.1632  -2.1578  -2.1549
    -2.0967  -2.0949  -2.0771  -2.0724  -2.0468  -2.0457  -2.0390  -2.0234
    -2.0219  -2.0091  -1.9906  -1.9658  -1.9608  -1.9531  -1.9504  -1.9495
    -1.9488  -1.9477  -1.9294  -1.9155  -1.9128  -1.9053  -1.9036  -1.9024
    -1.9004  -1.8991  -1.8973  -1.8697  -1.8634  -1.8607  -1.8561  -1.8539
    -1.8532  -1.8486  -1.8426  -1.8415  -1.8397  -1.8228  -1.8036  -1.7638
    -1.7363  -1.7242  -1.7091  -1.7007  -1.6878  -1.6871  -1.6693  -1.6674
    -1.6625  -1.6595  -1.6546  -1.6544  -1.6531  -1.6421  -1.6243  -1.6138
    -1.5867  -1.5766  -1.5751  -1.5496  -1.5415  -1.5083  -1.5027  -1.4537
    -1.4509  -1.4310  -1.4185  -1.4079  -1.4073  -1.3991  -1.3968  -1.3855
    -1.3830  -1.3826  -1.3816  -1.3801  -1.3788  -1.3778  -1.3762  -1.3577
    -1.3529  -1.3417  -1.3151  -1.3144  -1.3135  -1.2983  -1.2966  -1.2931
    -1.2881  -1.2864  -1.2634  -1.2455  -1.2385  -1.2214  -1.2182  -1.2017
    -1.2008  -1.1866  -1.1783  -1.1549  -1.1541  -1.1532  -1.1444  -1.1110
    -1.1094  -1.1016  -1.1006  -1.0998  -1.0907  -1.0685  -1.0673  -1.0584
    -1.0532  -1.0513  -1.0408  -1.0393  -1.0391  -1.0304  -1.0261  -1.0126
    -1.0110  -1.0085  -1.0083  -1.0018  -0.9964  -0.9855  -0.9830  -0.9402
    -0.9383  -0.9365  -0.9363  -0.9318  -0.9260  -0.9047  -0.8957  -0.8917
    -0.8692  -0.8673  -0.8626  -0.8586  -0.8506  -0.8462  -0.8393  -0.8081
    -0.8025  -0.7985  -0.7962  -0.7748  -0.7742  -0.7617  -0.7341  -0.7265
[...]
    -1.1938  -1.1922  -1.1912  -1.1830  -1.1796  -1.1598  -1.1272  -1.1127
    -1.1090  -1.1062  -1.0924  -1.0736  -1.0591  -1.0297  -1.0258  -1.0039
    -1.0021  -0.9922  -0.9901  -0.9880  -0.9855  -0.9828  -0.9720  -0.9643
    -0.9590  -0.9545  -0.9445  -0.9397  -0.9318  -0.9277  -0.9265  -0.9145
    -0.9093  -0.8991  -0.8810  -0.8801  -0.8790  -0.8385  -0.8376  -0.8342
    -0.8319  -0.8298  -0.8263  -0.8237  -0.8235  -0.8188  -0.7941  -0.7769
    -0.7522  -0.7453  -0.7170  -0.7141  -0.7119  -0.7070  -0.6998  -0.6756
    -0.6512  -0.6465  -0.6358  -0.6338  -0.6204  -0.6177  -0.6072  -0.6063
    -0.5911  -0.5908  -0.5442  -0.5428  -0.5379  -0.5115  -0.5010  -0.4643
    -0.4629  -0.4565  -0.4473  -0.4420  -0.4393  -0.4366  -0.4330  -0.4294
    -0.4215  -0.4085  -0.4065  -0.4022  -0.3947  -0.2568  -0.2530  -0.1825
    -0.1768  -0.0549  -0.0206   0.0255   0.0269   0.2482   0.5283   0.5354
     0.6961   0.6970   0.8687   0.8746   0.9508   0.9729   1.0078   1.0092
     1.1749   1.1983   1.4880   1.6947   1.7012   1.7154   1.7164   1.8291
     2.2358   2.2565   2.2958   2.2974   2.3090   2.3343   2.3724   2.7191
     2.7357   2.8066   2.9006   2.9018   2.9070   2.9082   3.0303   3.0345
     3.3343   3.3567   3.4991   3.6303   3.6671   3.6698   3.6762   3.7004
     3.9743   3.9816   4.0072   4.0075   4.2019   4.2063   4.2382   4.3832
     4.4002   4.4069   4.4273   4.4523   4.5245   4.5758   4.5817   4.8523
     4.8580   4.9424   4.9756   5.1701   5.4450   5.6212   5.6326   5.8062
     5.8141   5.8464   5.9027   5.9381   5.9589   5.9607   5.9861   6.0873
     6.0998   6.1183   6.1983   6.3531   6.4038   6.4100   6.4147   6.4694
     6.5164   6.5855   6.6316   6.6470   6.6663   6.6735   6.6841   6.7173

          k =-0.2500 0.2500 0.2500 (167588 PWs)   bands (ev):

   -20.1262  -7.8742  -7.1547  -6.6225  -6.6208  -6.1757  -5.6754  -5.6748
    -5.6420  -5.4391  -5.4342  -5.2467  -5.2431  -5.1762  -5.1323  -5.0449
    -4.9626  -4.9595  -4.9199  -4.9189  -4.7679  -4.7670  -4.7575  -4.7521
    -4.7317  -4.7278  -4.6689  -4.6487  -4.6479  -4.6349  -4.6299  -4.5824
    -4.5803  -4.5485  -4.4922  -4.4914  -4.4429  -4.4401  -4.4376  -4.4354
    -4.3930  -4.3921  -4.3565  -4.3449  -4.3381  -4.3182  -4.3172  -4.3091
    -4.3011  -4.2708  -4.2625  -4.2461  -4.2453  -4.2416  -4.2358  -4.2347
    -4.2184  -4.2159  -4.2090  -4.1265  -4.1172  -4.0800  -4.0765  -4.0437
    -4.0382  -4.0348  -4.0077  -4.0064  -4.0034  -3.9979  -3.9847  -3.9842
    -3.9314  -3.9293  -3.9163  -3.8707  -3.8696  -3.8488  -3.8433  -3.8240
    -3.7786  -3.7761  -3.7325  -3.7299  -3.7098  -3.7029  -3.6729  -3.6691
    -3.6060  -3.6047  -3.6021  -3.5970  -3.5924  -3.5897  -3.5868  -3.5849
    -3.5773  -3.5743  -3.5448  -3.5411  -3.5096  -3.5074  -3.4424  -3.4364
    -3.4329  -3.4289  -3.4242  -3.4158  -3.2989  -3.2973  -3.2651  -3.2617
    -3.2569  -3.2494  -3.2192  -3.2175  -3.2136  -3.2124  -3.2024  -3.1867
    -3.1639  -3.1622  -3.1581  -3.1522  -3.0763  -3.0665  -3.0645  -3.0615
    -3.0572  -3.0507  -3.0494  -3.0230  -3.0203  -3.0187  -3.0168  -3.0155
    -3.0118  -3.0087  -2.9689  -2.9646  -2.9459  -2.9355  -2.8968  -2.8623
    -2.8396  -2.8298  -2.8199  -2.8028  -2.7997  -2.7934  -2.7900  -2.7530
    -2.7394  -2.7341  -2.7332  -2.7300  -2.7283  -2.7261  -2.7252  -2.7182
    -2.7013  -2.6893  -2.6850  -2.6684  -2.6669  -2.6650  -2.6600  -2.6464
    -2.6409  -2.6395  -2.6361  -2.6322  -2.6116  -2.5912  -2.5818  -2.5541
    -2.5507  -2.5459  -2.5350  -2.5291  -2.4929  -2.4625  -2.4555  -2.4373
    -2.4332  -2.4297  -2.4184  -2.4069  -2.3309  -2.3272  -2.3181  -2.3042
    -2.2966  -2.2915  -2.2908  -2.2900  -2.2769  -2.2756  -2.2718  -2.2715
    -2.2629  -2.2587  -2.2536  -2.2494  -2.2447  -2.2335  -2.2161  -2.2123
    -2.2031  -2.1999  -2.1952  -2.1442  -2.1419  -2.1319  -2.0407  -2.0392
    -2.0253  -2.0128  -2.0067  -1.9965  -1.9920  -1.9868  -1.9844  -1.9819
    -1.9247  -1.9239  -1.9189  -1.9160  -1.9121  -1.9106  -1.8989  -1.8930
    -1.8825  -1.8790  -1.8680  -1.8648  -1.8562  -1.8546  -1.8327  -1.8149
    -1.7959  -1.7936  -1.7874  -1.7852  -1.7669  -1.7590  -1.7522  -1.7388
    -1.7380  -1.7107  -1.6981  -1.6881  -1.6200  -1.6150  -1.6125  -1.6091
    -1.5844  -1.5814  -1.5570  -1.5564  -1.5563  -1.5499  -1.5257  -1.5148
    -1.5136  -1.5116  -1.5105  -1.5044  -1.4981  -1.4942  -1.3950  -1.3933
    -1.3541  -1.3520  -1.3482  -1.3479  -1.3343  -1.3301  -1.3183  -1.3166
    -1.3152  -1.3140  -1.3109  -1.3075  -1.3059  -1.2969  -1.2950  -1.2897
    -1.2865  -1.2754  -1.2681  -1.2596  -1.2276  -1.2232  -1.2188  -1.2155
    -1.1938  -1.1922  -1.1912  -1.1830  -1.1796  -1.1598  -1.1272  -1.1127
    -1.1090  -1.1062  -1.0924  -1.0736  -1.0591  -1.0297  -1.0258  -1.0039
    -1.0021  -0.9922  -0.9901  -0.9880  -0.9855  -0.9828  -0.9720  -0.9643
    -0.9590  -0.9545  -0.9445  -0.9397  -0.9318  -0.9277  -0.9265  -0.9145
    -0.9093  -0.8991  -0.8810  -0.8801  -0.8790  -0.8385  -0.8377  -0.8342
    -0.8319  -0.8298  -0.8263  -0.8237  -0.8235  -0.8188  -0.7941  -0.7769
    -0.7522  -0.7453  -0.7170  -0.7141  -0.7119  -0.7070  -0.6998  -0.6756
    -0.6512  -0.6465  -0.6358  -0.6338  -0.6204  -0.6177  -0.6072  -0.6063
    -0.5910  -0.5908  -0.5442  -0.5428  -0.5379  -0.5115  -0.5010  -0.4643
    -0.4629  -0.4565  -0.4473  -0.4420  -0.4392  -0.4366  -0.4330  -0.4294
    -0.4215  -0.4085  -0.4065  -0.4022  -0.3947  -0.2568  -0.2530  -0.1824
    -0.1768  -0.0549  -0.0206   0.0256   0.0269   0.2482   0.5283   0.5354
     0.6961   0.6970   0.8687   0.8747   0.9508   0.9729   1.0078   1.0092
     1.1749   1.1983   1.4880   1.6947   1.7012   1.7154   1.7164   1.8291
     2.2358   2.2565   2.2958   2.2974   2.3090   2.3343   2.3724   2.7191
     2.7357   2.8066   2.9006   2.9018   2.9070   2.9082   3.0303   3.0345
     3.3343   3.3567   3.4992   3.6303   3.6671   3.6698   3.6762   3.7004
     3.9743   3.9816   4.0072   4.0075   4.2019   4.2063   4.2382   4.3832
     4.4002   4.4069   4.4273   4.4524   4.5246   4.5758   4.5817   4.8523
     4.8580   4.9423   4.9756   5.1696   5.4399   5.6210   5.6322   5.8046
     5.8099   5.8364   5.9027   5.9382   5.9589   5.9608   6.0202   6.0874
     6.1041   6.1374   6.1767   6.3330   6.4062   6.4145   6.4679   6.4966
     6.5396   6.6056   6.6316   6.6585   6.6680   6.6726   6.6892   6.7075

     the Fermi energy is     1.1348 ev

!    total energy              =   -7380.11706131 Ry
     Harris-Foulkes estimate   =   -7380.11706131 Ry
     estimated scf accuracy    <          8.5E-12 Ry

     The total energy is the sum of the following terms:

     one-electron contribution =  -51665.16211274 Ry
     hartree contribution      =   26382.64606151 Ry
     xc contribution           =   -3558.40577272 Ry
     ewald contribution        =   21460.80225556 Ry
     smearing contrib. (-TS)   =       0.00250708 Ry

     convergence has been achieved in  18 iterations

     negative rho (up, down):  1.964E+00 0.000E+00

     Forces acting on atoms (Ry/au):

     atom    1 type  3   force =    -0.00042511   -0.00297571    0.00039050
     atom    2 type  2   force =     0.00156519    0.00181890   -0.00108141
     atom    3 type  2   force =    -0.00079201    0.00072047   -0.00088777
     atom    4 type  1   force =    -0.00002367    0.00007455   -0.00031085
     atom    5 type  1   force =    -0.00002373   -0.00011118    0.00028169
     atom    6 type  1   force =    -0.00001296   -0.00009295    0.00018763
     atom    7 type  1   force =    -0.00026882   -0.00003580    0.00037209
     atom    8 type  1   force =    -0.00001657   -0.00041211    0.00025320
     atom    9 type  1   force =    -0.00003272   -0.00016521    0.00010709
     atom   10 type  1   force =    -0.00006334   -0.00003932    0.00053433
     atom   11 type  1   force =    -0.00040135   -0.00005565    0.00026114
     atom   12 type  1   force =     0.00035595   -0.00004317    0.00010987
     atom   13 type  1   force =    -0.00026883   -0.00006265    0.00032914
     atom   14 type  1   force =    -0.00000894    0.00032518    0.00011361
     atom   15 type  1   force =     0.00012232    0.00007439    0.00011303
     atom   16 type  1   force =     0.00000209    0.00008729   -0.00015472
     atom   17 type  1   force =    -0.00012546    0.00012051    0.00022877
     atom   18 type  1   force =     0.00008711    0.00028368    0.00021083
     atom   19 type  1   force =     0.00004202   -0.00007485   -0.00011239
     atom   20 type  1   force =    -0.00002132   -0.00003350    0.00053262
     atom   21 type  1   force =     0.00007110   -0.00005068   -0.00036114
     atom   22 type  1   force =     0.00003089    0.00019220   -0.00026736
     atom   23 type  1   force =    -0.00019874   -0.00005176   -0.00022611
     atom   24 type  1   force =    -0.00020945    0.00036154   -0.00044929
     atom   25 type  1   force =     0.00045318   -0.00032000    0.00015822
     atom   26 type  1   force =    -0.00013129    0.00004078   -0.00018662
     atom   27 type  1   force =    -0.00038457   -0.00011340   -0.00006507
     atom   28 type  1   force =    -0.00020223   -0.00015573    0.00007852
     atom   29 type  1   force =    -0.00021941   -0.00006569    0.00014216
     atom   30 type  1   force =     0.00014757   -0.00016977   -0.00045090
     atom   31 type  1   force =     0.00023962    0.00025202   -0.00013249
     atom   32 type  1   force =    -0.00010650   -0.00036605    0.00012708
     atom   33 type  1   force =    -0.00022548   -0.00002569    0.00000501
     atom   34 type  1   force =     0.00014090    0.00003783   -0.00022356
     atom   35 type  1   force =    -0.00020517    0.00031875   -0.00013760
     atom   36 type  1   force =    -0.00020102    0.00000478   -0.00027503
     atom   37 type  1   force =     0.00010987   -0.00030372   -0.00033802
     atom   38 type  1   force =    -0.00039372   -0.00003329    0.00022231
     atom   39 type  1   force =     0.00018353   -0.00026698   -0.00018127
     atom   40 type  1   force =     0.00019326    0.00020006    0.00011174
     atom   41 type  1   force =    -0.00006551    0.00051853   -0.00009467
     atom   42 type  1   force =     0.00002875    0.00054479   -0.00037920
     atom   43 type  1   force =     0.00044467   -0.00029011   -0.00018004
     atom   44 type  1   force =     0.00033046    0.00008764   -0.00003087
     atom   45 type  1   force =    -0.00028897   -0.00012390    0.00020691
     atom   46 type  1   force =     0.00024204    0.00028067   -0.00035114
     atom   47 type  1   force =    -0.00021187   -0.00007419   -0.00025701
     atom   48 type  1   force =     0.00003731   -0.00011661   -0.00047676
     atom   49 type  1   force =     0.00025460    0.00002170   -0.00025061
     atom   50 type  1   force =     0.00003869    0.00040585    0.00006741
     atom   51 type  1   force =    -0.00025290   -0.00025954   -0.00023264
     atom   52 type  1   force =     0.00039976   -0.00002242   -0.00043587
     atom   53 type  1   force =    -0.00016167   -0.00020675    0.00008865
     atom   54 type  1   force =    -0.00035635    0.00012130   -0.00035337
     atom   55 type  1   force =    -0.00001113   -0.00023204   -0.00002955
     atom   56 type  1   force =    -0.00032458   -0.00012721   -0.00019557
     atom   57 type  1   force =     0.00004401   -0.00016199   -0.00022595
     atom   58 type  1   force =     0.00029846    0.00028015    0.00013106
     atom   59 type  1   force =    -0.00011969    0.00052397    0.00062694
     atom   60 type  1   force =    -0.00003304    0.00032272    0.00032828
     atom   61 type  1   force =     0.00002543    0.00016011   -0.00001395
     atom   62 type  1   force =     0.00006169    0.00002170    0.00052828
     atom   63 type  1   force =     0.00014650   -0.00011016    0.00033417
     atom   64 type  1   force =     0.00043788   -0.00013523    0.00052214
     atom   65 type  1   force =     0.00052202    0.00030823    0.00011311
     atom   66 type  1   force =    -0.00036502   -0.00009578    0.00028629
     atom   67 type  1   force =     0.00002617   -0.00035054    0.00006810
     atom   68 type  1   force =    -0.00000417    0.00002670    0.00022995
     atom   69 type  1   force =     0.00021328    0.00012757    0.00036191
     atom   70 type  1   force =     0.00022590    0.00007381   -0.00001282
     atom   71 type  1   force =    -0.00010244   -0.00023733    0.00019756
     atom   72 type  1   force =    -0.00016482   -0.00014883    0.00041250
     atom   73 type  1   force =     0.00024084    0.00006839   -0.00003446
     atom   74 type  1   force =     0.00008728   -0.00004938   -0.00004697
     atom   75 type  1   force =    -0.00042576   -0.00003990    0.00006921

     Total force =     0.005512     Total SCF correction =     0.000015

     number of scf cycles    =  50
     number of bfgs steps    =  49

     energy   old            =   -7380.1170100765 Ry
     energy   new            =   -7380.1170613125 Ry

     CASE: energy  _new < energy  _old

     new trust radius        =       0.0291179465 bohr
     new conv_thr            =            1.0E-10 Ry


ATOMIC_POSITIONS (angstrom)
O        6.232637312   4.188353717   8.913245222
H        5.507171928   3.543723914   9.036043699
H        7.044609253   3.699543444   9.150040720
Au       0.003364603   0.002239817   0.218333988
Au       4.268988962   0.007931786   0.219631570
Au       8.511654298   0.009118009   0.217993582
Au       2.141064689   2.136063624   0.218482637
Au       6.389771248   2.135322439   0.220823379
Au      10.633802553   2.138065195   0.216634152
Au       0.002048141   4.259735537   0.217735944
Au       4.267405394   4.257278622   0.220474176
Au       8.508191262   4.256764756   0.218007562
Au       2.140143017   6.379983731   0.215977386
Au       6.389330053   6.376298826   0.218121299
Au      10.634011785   6.376561037   0.215849564
Au       0.003549362   8.508713139   0.216903367
Au       4.269655171   8.502872813   0.215639049
Au       8.509704818   8.500882909   0.215754066
Au       2.133597109  10.637748636   0.217225512
Au       6.392517048  10.637049432   0.218492519
Au      10.639557691  10.637832033   0.218372050
Au       2.133612998   0.001236206   2.185303551
Au       6.390525858   0.010329042   2.197990903
Au      10.640148905   0.002929729   2.189671927
Au      -0.001552170   2.134398517   2.181250947
Au       4.262926550   2.131366474   2.202923919
Au       8.513797249   2.133997440   2.204606433
Au       2.140776102   4.259005918   2.194943358
Au       6.386824505   4.257243296   2.201512131
Au      10.626248364   4.259243998   2.202320370
Au       0.000990156   6.381207066   2.185124761
Au       4.263969053   6.383221550   2.201460337
Au       8.511495898   6.379394779   2.205212943
Au       2.134949873   8.507895846   2.187104790
Au       6.390710654   8.495437596   2.199934952
Au      10.639589959   8.506856144   2.189746027
Au       0.003551747  10.638463770   2.188236013
Au       4.266319447  10.633803088   2.180904431
Au       8.513481673  10.636597835   2.186607197
Au       0.001034604  -0.002016592   4.201738352
Au       4.257638424  -0.014228218   4.201795961
Au       8.515243863  -0.008390215   4.210314624
Au      -0.003065422   4.258285463   4.209155306
Au       4.265496203   4.255131381   4.234030536
Au       8.494882447   4.256075341   4.242062424
Au       0.002240404   8.511130863   4.206415747
Au       4.260238325   8.517682813   4.209573871
Au       8.515554412   8.515497003   4.214778464
Au       2.116382969   2.125765234   4.201672614
Au       6.382998999   2.138140475   4.234882690
Au      10.647205647   2.129689209   4.211236791
Au       2.118686331   6.383975455   4.207936070
Au       6.383621767   6.367574815   4.242283808
Au      10.647893805   6.383042942   4.214532107
Au       2.129878667  10.637758922   4.202378431
Au       6.390968321  10.637675958   4.208688196
Au      10.643992624  10.638936752   4.206209897
Au       2.118357670  -0.011290573   6.183816535
Au       6.384192275  -0.007517065   6.181134672
Au      10.650211865  -0.008136335   6.189399460
Au       0.000772123   2.120040092   6.188589182
Au       4.223178926   2.094814561   6.177666835
Au       8.533741021   2.103081854   6.187912161
Au       2.117995188   4.251216898   6.179009531
Au       6.375172211   4.250456463   6.235584086
Au      10.643902892   4.253803479   6.189314397
Au       0.001368910   6.390464567   6.190993367
Au       4.224065124   6.408506927   6.179912059
Au       8.536345512   6.404617488   6.187296151
Au       2.119579075   8.521461218   6.187594899
Au       6.386921282   8.519707215   6.183732369
Au      10.651922360   8.521147307   6.190761625
Au       0.002505740  10.639009438   6.189736529
Au       4.252772885  10.638709322   6.186557489
Au       8.524962971  10.639406881   6.191190878



     Writing output data file 6510999.save
     Check: negative starting charge=   -1.935897
     NEW-OLD atomic charge density approx. for the potential
     Check: negative starting charge=   -1.936002

     negative rho (up, down):  1.964E+00 0.000E+00

     Writing output data file 6510999.save
 
     init_run     :     44.73s CPU     45.57s WALL (       1 calls)
     electrons    : 112573.85s CPU 129617.34s WALL (      50 calls)
     update_pot   :    144.38s CPU    155.84s WALL (      50 calls)
     forces       :   1451.20s CPU   1526.33s WALL (      50 calls)

     Called by init_run:
     wfcinit      :     37.96s CPU     38.21s WALL (       1 calls)
     potinit      :      1.47s CPU      1.51s WALL (       1 calls)

     Called by electrons:
     c_bands      :  92762.41s CPU  94371.11s WALL (     917 calls)
     sum_band     :  15944.35s CPU  30592.97s WALL (     917 calls)
     v_of_rho     :    961.71s CPU    986.89s WALL (     931 calls)
     newd         :   2407.20s CPU   3061.78s WALL (     931 calls)
     mix_rho      :    231.56s CPU    238.10s WALL (     917 calls)

     Called by c_bands:
     init_us_2    :    298.66s CPU    299.99s WALL (    1835 calls)
     cegterg      :  82642.75s CPU  84121.06s WALL (     917 calls)

     Called by sum_band:
     sum_band:bec :      5.83s CPU      6.23s WALL (     917 calls)
     addusdens    :   3184.34s CPU   8080.11s WALL (     917 calls)

     Called by *egterg:
     h_psi        :  42692.59s CPU  42893.42s WALL (    3307 calls)
     s_psi        :   7908.04s CPU   7910.08s WALL (    3307 calls)
     g_psi        :     87.76s CPU     87.95s WALL (    2389 calls)
     cdiaghg      :   7417.18s CPU   7440.97s WALL (    3220 calls)

     Called by h_psi:
     add_vuspsi   :   7840.22s CPU   7844.75s WALL (    3307 calls)

     General routines
     calbec       :  11997.85s CPU  12104.87s WALL (    4424 calls)
     fft          :   1237.32s CPU   1248.08s WALL (   15442 calls)
     ffts         :     38.06s CPU     38.61s WALL (    1848 calls)
     fftw         :  23923.33s CPU  33727.28s WALL ( 2453632 calls)
     interpolate  :    170.64s CPU    175.02s WALL (    1848 calls)
     davcio       :      0.04s CPU      5.99s WALL (      51 calls)
 
     Parallel routines
     fft_scatter  :   9554.41s CPU   9615.72s WALL ( 2470922 calls)
 
     PWSCF        :     1d    7h47m CPU        1d   12h37m WALL

 
   This run was terminated on:  13:36:36  26Jan2017            

=------------------------------------------------------------------------------=
   JOB DONE.
=------------------------------------------------------------------------------=
-------------------------------------------------------
Primary job  terminated normally, but 1 process returned
a non-zero exit code.. Per user-direction, the job has been aborted.
-------------------------------------------------------
--------------------------------------------------------------------------
mpirun detected that one or more processes exited with non-zero status, thus causing
the job to be terminated. The first process to do so was:

  Process name: [[34952,1],43]
  Exit code:    3
--------------------------------------------------------------------------
