
     Program PWSCF v.5.4.0 starts on 30Jan2017 at 14:19:57 

     This program is part of the open-source Quantum ESPRESSO suite
     for quantum simulation of materials; please cite
         "P. Giannozzi et al., J. Phys.:Condens. Matter 21 395502 (2009);
          URL http://www.quantum-espresso.org", 
     in publications or presentations arising from this work. More details at
     http://www.quantum-espresso.org/quote

     Parallel version (MPI), running on    48 processors
     K-points division:     npool     =       6
     R & G space division:  proc/nbgrp/npool/nimage =       8
     Reading input from top.O1.Au62.d.0.0.phi.0.psi.90.in
Warning: card &CELL ignored
Warning: card / ignored

     Current dimensions of program PWSCF are:
     Max number of different atomic species (ntypx) = 10
     Max number of k-points (npk) =  40000
     Max angular momentum in pseudopotentials (lmaxx) =  3

     Subspace diagonalization in iterative solution of the eigenvalue problem:
     a serial algorithm will be used

 
     Parallelization info
     --------------------
     sticks:   dense  smooth     PW     G-vecs:    dense   smooth      PW
     Min        2313    1158    298               474089   167622   21962
     Max        2314    1159    299               474104   167655   21969
     Sum       18505    9265   2385              3792731  1341081  175711
 

     Title: 
     top.O1.Au62.d.0.0.phi.0.psi.90.relax                                       


     bravais-lattice index     =            8
     lattice parameter (alat)  =      24.1233  a.u.
     unit-cell volume          =   28076.2361 (a.u.)^3
     number of atoms/cell      =           75
     number of atomic types    =            3
     number of electrons       =       800.00
     number of Kohn-Sham states=          480
     kinetic-energy cutoff     =      50.0000  Ry
     charge density cutoff     =     400.0000  Ry
     convergence threshold     =      1.0E-08
     mixing beta               =       0.7000
     number of iterations used =            8  plain     mixing
     Exchange-correlation      =  SLA  PW   PBE  PBE ( 1  4  3  4 0 0)
     nstep                     =           50


     celldm(1)=  24.123277  celldm(2)=   1.000000  celldm(3)=   2.000000
     celldm(4)=   0.000000  celldm(5)=   0.000000  celldm(6)=   0.000000

     crystal axes: (cart. coord. in units of alat)
               a(1) = (   1.000000   0.000000   0.000000 )  
               a(2) = (   0.000000   1.000000   0.000000 )  
               a(3) = (   0.000000   0.000000   2.000000 )  

     reciprocal axes: (cart. coord. in units 2 pi/alat)
               b(1) = (  1.000000  0.000000  0.000000 )  
               b(2) = (  0.000000  1.000000  0.000000 )  
               b(3) = (  0.000000  0.000000  0.500000 )  


     PseudoPot. # 1 for Au read from file:
     ../../../../pseudo/Au.pbe-nd-van.UPF
     MD5 check sum: 458681b50f36d87ef23c61b04bba420a
     Pseudo is Ultrasoft + core correction, Zval = 11.0
     Generated by new atomic code, or converted to UPF format
     Using radial grid of  985 points,  3 beta functions with: 
                l(1) =   1
                l(2) =   2
                l(3) =   2
     Q(r) pseudized with  8 coefficients,  rinner =    1.100   1.100   1.100
                                                       1.100   1.100

     PseudoPot. # 2 for H  read from file:
     ../../../../pseudo/H.pbe-van_ak.UPF
     MD5 check sum: 403db7282739603aa925980fa9b8608d
     Pseudo is Ultrasoft, Zval =  1.0
     Generated by new atomic code, or converted to UPF format
     Using radial grid of  615 points,  1 beta functions with: 
                l(1) =   0
     Q(r) pseudized with  8 coefficients,  rinner =    0.800

     PseudoPot. # 3 for O  read from file:
     ../../../../pseudo/O.pbe-van_ak.UPF
     MD5 check sum: 4b8c549914a63cae506c6ff22b5af4fe
     Pseudo is Ultrasoft, Zval =  6.0
     Generated by new atomic code, or converted to UPF format
     Using radial grid of  737 points,  4 beta functions with: 
                l(1) =   0
                l(2) =   0
                l(3) =   1
                l(4) =   1
     Q(r) pseudized with  8 coefficients,  rinner =    0.800   0.800   0.800


     atomic species   valence    mass     pseudopotential
        Au            11.00   196.96657     Au( 1.00)
        H              1.00     1.01000     H ( 1.00)
        O              6.00    16.00000     O ( 1.00)

     No symmetry found



   Cartesian axes

     site n.     atom                  positions (alat units)
         1           O   tau(   1) = (   0.4998324   0.3332216   0.7343272  )
         2           H   tau(   2) = (   0.4527548   0.2877277   0.6951557  )
         3           H   tau(   3) = (   0.5454827   0.2853639   0.7723288  )
         4           Au  tau(   4) = (   0.0000000   0.0000000   0.0000000  )
         5           Au  tau(   5) = (   0.3332217   0.0000000   0.0000000  )
         6           Au  tau(   6) = (   0.6664435   0.0000000   0.0000000  )
         7           Au  tau(   7) = (   0.1666109   0.1666109   0.0000000  )
         8           Au  tau(   8) = (   0.4998326   0.1666109   0.0000000  )
         9           Au  tau(   9) = (   0.8330542   0.1666109   0.0000000  )
        10           Au  tau(  10) = (   0.0000000   0.3332217   0.0000000  )
        11           Au  tau(  11) = (   0.3332217   0.3332217   0.0000000  )
        12           Au  tau(  12) = (   0.6664435   0.3332217   0.0000000  )
        13           Au  tau(  13) = (   0.1666109   0.4998326   0.0000000  )
        14           Au  tau(  14) = (   0.4998326   0.4998326   0.0000000  )
        15           Au  tau(  15) = (   0.8330542   0.4998326   0.0000000  )
        16           Au  tau(  16) = (   0.0000000   0.6664435   0.0000000  )
        17           Au  tau(  17) = (   0.3332217   0.6664435   0.0000000  )
        18           Au  tau(  18) = (   0.6664435   0.6664435   0.0000000  )
        19           Au  tau(  19) = (   0.1666109   0.8330542   0.0000000  )
        20           Au  tau(  20) = (   0.4998326   0.8330542   0.0000000  )
        21           Au  tau(  21) = (   0.8330542   0.8330542   0.0000000  )
        22           Au  tau(  22) = (   0.1666109   0.0000000   0.1666109  )
        23           Au  tau(  23) = (   0.4998326   0.0000000   0.1666109  )
        24           Au  tau(  24) = (   0.8330542   0.0000000   0.1666109  )
        25           Au  tau(  25) = (   0.0000000   0.1666109   0.1666109  )
        26           Au  tau(  26) = (   0.3332217   0.1666109   0.1666109  )
        27           Au  tau(  27) = (   0.6664435   0.1666109   0.1666109  )
        28           Au  tau(  28) = (   0.1666109   0.3332217   0.1666109  )
        29           Au  tau(  29) = (   0.4998326   0.3332217   0.1666109  )
        30           Au  tau(  30) = (   0.8330542   0.3332217   0.1666109  )
        31           Au  tau(  31) = (   0.0000000   0.4998326   0.1666109  )
        32           Au  tau(  32) = (   0.3332217   0.4998326   0.1666109  )
        33           Au  tau(  33) = (   0.6664435   0.4998326   0.1666109  )
        34           Au  tau(  34) = (   0.1666109   0.6664435   0.1666109  )
        35           Au  tau(  35) = (   0.4998326   0.6664435   0.1666109  )
        36           Au  tau(  36) = (   0.8330542   0.6664435   0.1666109  )
        37           Au  tau(  37) = (   0.0000000   0.8330542   0.1666109  )
        38           Au  tau(  38) = (   0.3332217   0.8330542   0.1666109  )
        39           Au  tau(  39) = (   0.6664435   0.8330542   0.1666109  )
        40           Au  tau(  40) = (  -0.0000182  -0.0000182   0.3335478  )
        41           Au  tau(  41) = (   0.3332215  -0.0000181   0.3335472  )
        42           Au  tau(  42) = (   0.6664447  -0.0000183   0.3335481  )
        43           Au  tau(  43) = (  -0.0000181   0.3332215   0.3335472  )
        44           Au  tau(  44) = (   0.3332215   0.3332215   0.3335468  )
        45           Au  tau(  45) = (   0.6664445   0.3332215   0.3335478  )
        46           Au  tau(  46) = (  -0.0000183   0.6664447   0.3335481  )
        47           Au  tau(  47) = (   0.3332215   0.6664445   0.3335478  )
        48           Au  tau(  48) = (   0.6664446   0.6664446   0.3335486  )
        49           Au  tau(  49) = (   0.1666097   0.1666097   0.3335483  )
        50           Au  tau(  50) = (   0.4998320   0.1666098   0.3335477  )
        51           Au  tau(  51) = (   0.8330732   0.1666096   0.3335481  )
        52           Au  tau(  52) = (   0.1666098   0.4998320   0.3335477  )
        53           Au  tau(  53) = (   0.4998321   0.4998321   0.3335470  )
        54           Au  tau(  54) = (   0.8330730   0.4998322   0.3335474  )
        55           Au  tau(  55) = (   0.1666096   0.8330732   0.3335481  )
        56           Au  tau(  56) = (   0.4998322   0.8330730   0.3335474  )
        57           Au  tau(  57) = (   0.8330731   0.8330731   0.3335478  )
        58           Au  tau(  58) = (   0.1666104  -0.0000111   0.4993095  )
        59           Au  tau(  59) = (   0.4998323  -0.0000112   0.4993099  )
        60           Au  tau(  60) = (   0.8330661  -0.0000111   0.4993009  )
        61           Au  tau(  61) = (  -0.0000111   0.1666104   0.4993095  )
        62           Au  tau(  62) = (   0.3332214   0.1666106   0.4993185  )
        63           Au  tau(  63) = (   0.6664437   0.1666106   0.4993187  )
        64           Au  tau(  64) = (   0.1666106   0.3332214   0.4993185  )
        65           Au  tau(  65) = (   0.4998324   0.3332216   0.4993185  )
        66           Au  tau(  66) = (   0.8330659   0.3332215   0.4993103  )
        67           Au  tau(  67) = (  -0.0000112   0.4998323   0.4993099  )
        68           Au  tau(  68) = (   0.3332216   0.4998324   0.4993185  )
        69           Au  tau(  69) = (   0.6664436   0.4998325   0.4993187  )
        70           Au  tau(  70) = (   0.1666106   0.6664437   0.4993187  )
        71           Au  tau(  71) = (   0.4998325   0.6664436   0.4993187  )
        72           Au  tau(  72) = (   0.8330658   0.6664438   0.4993102  )
        73           Au  tau(  73) = (  -0.0000111   0.8330661   0.4993009  )
        74           Au  tau(  74) = (   0.3332215   0.8330659   0.4993103  )
        75           Au  tau(  75) = (   0.6664438   0.8330658   0.4993102  )

     number of k points=     6  Marzari-Vanderbilt smearing, width (Ry)=  0.0200
                       cart. coord. in units 2pi/alat
        k(    1) = (   0.2500000   0.2500000   0.0833333), wk =   0.3333333
        k(    2) = (   0.2500000   0.2500000  -0.2500000), wk =   0.3333333
        k(    3) = (  -0.2500000  -0.2500000   0.0833333), wk =   0.3333333
        k(    4) = (  -0.2500000   0.2500000  -0.0833333), wk =   0.3333333
        k(    5) = (   0.2500000  -0.2500000  -0.0833333), wk =   0.3333333
        k(    6) = (  -0.2500000   0.2500000   0.2500000), wk =   0.3333333

     Dense  grid:  3792731 G-vectors     FFT dimensions: ( 160, 160, 320)

     Smooth grid:  1341081 G-vectors     FFT dimensions: ( 120, 120, 225)

     Largest allocated arrays     est. size (Mb)     dimensions
        Kohn-Sham Wavefunctions       154.19 Mb     (   21052,  480)
        NL pseudopotentials           303.88 Mb     (   21052,  946)
        Each V/rho on FFT grid         15.62 Mb     ( 1024000)
        Each G-vector array             3.62 Mb     (  474091)
        G-vector shells                 0.08 Mb     (   10780)
     Largest temporary arrays     est. size (Mb)     dimensions
        Auxiliary wavefunctions       616.76 Mb     (   21052, 1920)
        Each subspace H/S matrix       56.25 Mb     (    1920, 1920)
        Each <psi_i|beta_j> matrix      6.93 Mb     (     946,  480)
        Arrays for rho mixing         125.00 Mb     ( 1024000,    8)

     Initial potential from superposition of free atoms
     Check: negative starting charge=   -1.945168

     starting charge  799.16392, renormalised to  800.00000

     negative rho (up, down):  1.947E+00 0.000E+00
     Starting wfc are  654 randomized atomic wfcs

     total cpu time spent up to now is       45.8 secs

     per-process dynamical memory:   710.5 Mb

     Self-consistent Calculation

     iteration #  1     ecut=    50.00 Ry     beta=0.70
     Davidson diagonalization with overlap
     ethr =  1.00E-02,  avg # of iterations =  3.0

     Threshold (ethr) on eigenvalues was too large:
     Diagonalizing with lowered threshold

     Davidson diagonalization with overlap
     ethr =  4.93E-04,  avg # of iterations =  2.0

     negative rho (up, down):  1.932E+00 0.000E+00

     total cpu time spent up to now is      222.4 secs

     total energy              =   -7377.43384048 Ry
     Harris-Foulkes estimate   =   -7380.94790680 Ry
     estimated scf accuracy    <       4.46640137 Ry

     iteration #  2     ecut=    50.00 Ry     beta=0.70
     Davidson diagonalization with overlap
     ethr =  5.58E-04,  avg # of iterations = 11.3

     negative rho (up, down):  1.930E+00 0.000E+00

     total cpu time spent up to now is      451.7 secs

     total energy              =   -7368.87458137 Ry
     Harris-Foulkes estimate   =   -7387.91427018 Ry
     estimated scf accuracy    <      98.07344186 Ry

     iteration #  3     ecut=    50.00 Ry     beta=0.70
     Davidson diagonalization with overlap
     ethr =  5.58E-04,  avg # of iterations =  6.0

     negative rho (up, down):  1.947E+00 0.000E+00

     total cpu time spent up to now is      616.2 secs

     total energy              =   -7378.76344552 Ry
     Harris-Foulkes estimate   =   -7380.68566856 Ry
     estimated scf accuracy    <       7.32156691 Ry

     iteration #  4     ecut=    50.00 Ry     beta=0.70
     Davidson diagonalization with overlap
     ethr =  5.58E-04,  avg # of iterations =  4.8

     negative rho (up, down):  1.951E+00 0.000E+00

     total cpu time spent up to now is      712.9 secs

     total energy              =   -7379.29366038 Ry
     Harris-Foulkes estimate   =   -7380.51392942 Ry
     estimated scf accuracy    <       7.64862976 Ry

     iteration #  5     ecut=    50.00 Ry     beta=0.70
     Davidson diagonalization with overlap
     ethr =  5.58E-04,  avg # of iterations =  5.7

     negative rho (up, down):  1.960E+00 0.000E+00

     total cpu time spent up to now is      810.4 secs

     total energy              =   -7379.78419552 Ry
     Harris-Foulkes estimate   =   -7380.26136676 Ry
     estimated scf accuracy    <       3.38503520 Ry

     iteration #  6     ecut=    50.00 Ry     beta=0.70
     Davidson diagonalization with overlap
     ethr =  4.23E-04,  avg # of iterations =  2.8

     negative rho (up, down):  1.963E+00 0.000E+00

     total cpu time spent up to now is      899.7 secs

     total energy              =   -7379.95787475 Ry
     Harris-Foulkes estimate   =   -7380.02318903 Ry
     estimated scf accuracy    <       0.22705669 Ry

     iteration #  7     ecut=    50.00 Ry     beta=0.70
     Davidson diagonalization with overlap
     ethr =  2.84E-05,  avg # of iterations =  9.5

     negative rho (up, down):  1.966E+00 0.000E+00

     total cpu time spent up to now is     1021.0 secs

     total energy              =   -7379.96872401 Ry
     Harris-Foulkes estimate   =   -7380.01580463 Ry
     estimated scf accuracy    <       0.24555819 Ry

     iteration #  8     ecut=    50.00 Ry     beta=0.70
     Davidson diagonalization with overlap
     ethr =  2.84E-05,  avg # of iterations =  3.0

     negative rho (up, down):  1.968E+00 0.000E+00

     total cpu time spent up to now is     1112.2 secs

     total energy              =   -7379.97732432 Ry
     Harris-Foulkes estimate   =   -7379.99867008 Ry
     estimated scf accuracy    <       0.08567720 Ry

     iteration #  9     ecut=    50.00 Ry     beta=0.70
     Davidson diagonalization with overlap
     ethr =  1.07E-05,  avg # of iterations = 13.3

     negative rho (up, down):  1.969E+00 0.000E+00

     total cpu time spent up to now is     1232.4 secs

     total energy              =   -7379.98025909 Ry
     Harris-Foulkes estimate   =   -7379.98952852 Ry
     estimated scf accuracy    <       0.02832071 Ry

     iteration # 10     ecut=    50.00 Ry     beta=0.70
     Davidson diagonalization with overlap
     ethr =  3.54E-06,  avg # of iterations =  6.0

     negative rho (up, down):  1.970E+00 0.000E+00

     total cpu time spent up to now is     1354.9 secs

     total energy              =   -7379.98217006 Ry
     Harris-Foulkes estimate   =   -7379.98523498 Ry
     estimated scf accuracy    <       0.00797124 Ry

     iteration # 11     ecut=    50.00 Ry     beta=0.70
     Davidson diagonalization with overlap
     ethr =  9.96E-07,  avg # of iterations =  3.8

     negative rho (up, down):  1.970E+00 0.000E+00

     total cpu time spent up to now is     1453.6 secs

     total energy              =   -7379.98296283 Ry
     Harris-Foulkes estimate   =   -7379.98422156 Ry
     estimated scf accuracy    <       0.00367749 Ry

     iteration # 12     ecut=    50.00 Ry     beta=0.70
     Davidson diagonalization with overlap
     ethr =  4.60E-07,  avg # of iterations =  2.0

     negative rho (up, down):  1.971E+00 0.000E+00

     total cpu time spent up to now is     1542.8 secs

     total energy              =   -7379.98298139 Ry
     Harris-Foulkes estimate   =   -7379.98394910 Ry
     estimated scf accuracy    <       0.00367019 Ry

     iteration # 13     ecut=    50.00 Ry     beta=0.70
     Davidson diagonalization with overlap
     ethr =  4.59E-07,  avg # of iterations =  6.0

     negative rho (up, down):  1.971E+00 0.000E+00

     total cpu time spent up to now is     1653.3 secs

     total energy              =   -7379.98269637 Ry
     Harris-Foulkes estimate   =   -7379.98453099 Ry
     estimated scf accuracy    <       0.00947709 Ry

     iteration # 14     ecut=    50.00 Ry     beta=0.70
     Davidson diagonalization with overlap
     ethr =  4.59E-07,  avg # of iterations =  3.7

     negative rho (up, down):  1.971E+00 0.000E+00

     total cpu time spent up to now is     1748.6 secs

     total energy              =   -7379.98355114 Ry
     Harris-Foulkes estimate   =   -7379.98359845 Ry
     estimated scf accuracy    <       0.00015157 Ry

     iteration # 15     ecut=    50.00 Ry     beta=0.70
     Davidson diagonalization with overlap
     ethr =  1.89E-08,  avg # of iterations =  2.5

     negative rho (up, down):  1.970E+00 0.000E+00

     total cpu time spent up to now is     1854.5 secs

     total energy              =   -7379.98355571 Ry
     Harris-Foulkes estimate   =   -7379.98362002 Ry
     estimated scf accuracy    <       0.00046059 Ry

     iteration # 16     ecut=    50.00 Ry     beta=0.70
     Davidson diagonalization with overlap
     ethr =  1.89E-08,  avg # of iterations =  2.0

     negative rho (up, down):  1.970E+00 0.000E+00

     total cpu time spent up to now is     1941.9 secs

     total energy              =   -7379.98358531 Ry
     Harris-Foulkes estimate   =   -7379.98360094 Ry
     estimated scf accuracy    <       0.00007794 Ry

     iteration # 17     ecut=    50.00 Ry     beta=0.70
     Davidson diagonalization with overlap
     ethr =  9.74E-09,  avg # of iterations =  1.0

     negative rho (up, down):  1.970E+00 0.000E+00

     total cpu time spent up to now is     2026.7 secs

     total energy              =   -7379.98359194 Ry
     Harris-Foulkes estimate   =   -7379.98359420 Ry
     estimated scf accuracy    <       0.00000560 Ry

     iteration # 18     ecut=    50.00 Ry     beta=0.70
     Davidson diagonalization with overlap
     ethr =  7.01E-10,  avg # of iterations =  3.0

     negative rho (up, down):  1.970E+00 0.000E+00

     total cpu time spent up to now is     2142.6 secs

     total energy              =   -7379.98359176 Ry
     Harris-Foulkes estimate   =   -7379.98359492 Ry
     estimated scf accuracy    <       0.00001463 Ry

     iteration # 19     ecut=    50.00 Ry     beta=0.70
     Davidson diagonalization with overlap
     ethr =  7.01E-10,  avg # of iterations =  3.0

     negative rho (up, down):  1.970E+00 0.000E+00

     total cpu time spent up to now is     2235.9 secs

     total energy              =   -7379.98359305 Ry
     Harris-Foulkes estimate   =   -7379.98359389 Ry
     estimated scf accuracy    <       0.00000382 Ry

     iteration # 20     ecut=    50.00 Ry     beta=0.70
     Davidson diagonalization with overlap
     ethr =  4.78E-10,  avg # of iterations =  3.0

     negative rho (up, down):  1.970E+00 0.000E+00

     total cpu time spent up to now is     2325.0 secs

     total energy              =   -7379.98359338 Ry
     Harris-Foulkes estimate   =   -7379.98359367 Ry
     estimated scf accuracy    <       0.00000106 Ry

     iteration # 21     ecut=    50.00 Ry     beta=0.70
     Davidson diagonalization with overlap
     ethr =  1.32E-10,  avg # of iterations =  2.0

     negative rho (up, down):  1.970E+00 0.000E+00

     total cpu time spent up to now is     2413.9 secs

     total energy              =   -7379.98359346 Ry
     Harris-Foulkes estimate   =   -7379.98359362 Ry
     estimated scf accuracy    <       0.00000052 Ry

     iteration # 22     ecut=    50.00 Ry     beta=0.70
     Davidson diagonalization with overlap
     ethr =  6.48E-11,  avg # of iterations =  2.0

     negative rho (up, down):  1.970E+00 0.000E+00

     total cpu time spent up to now is     2504.0 secs

     total energy              =   -7379.98359352 Ry
     Harris-Foulkes estimate   =   -7379.98359357 Ry
     estimated scf accuracy    <       0.00000026 Ry

     iteration # 23     ecut=    50.00 Ry     beta=0.70
     Davidson diagonalization with overlap
     ethr =  3.22E-11,  avg # of iterations =  2.0

     negative rho (up, down):  1.970E+00 0.000E+00

     total cpu time spent up to now is     2591.9 secs

     total energy              =   -7379.98359354 Ry
     Harris-Foulkes estimate   =   -7379.98359355 Ry
     estimated scf accuracy    <       0.00000003 Ry

     iteration # 24     ecut=    50.00 Ry     beta=0.70
     Davidson diagonalization with overlap
     ethr =  3.45E-12,  avg # of iterations =  3.0

     negative rho (up, down):  1.970E+00 0.000E+00

     total cpu time spent up to now is     2718.2 secs

     total energy              =   -7379.98359352 Ry
     Harris-Foulkes estimate   =   -7379.98359357 Ry
     estimated scf accuracy    <       0.00000022 Ry

     iteration # 25     ecut=    50.00 Ry     beta=0.70
     Davidson diagonalization with overlap
     ethr =  3.45E-12,  avg # of iterations =  3.0

     negative rho (up, down):  1.970E+00 0.000E+00

     total cpu time spent up to now is     2832.2 secs

     total energy              =   -7379.98359354 Ry
     Harris-Foulkes estimate   =   -7379.98359355 Ry
     estimated scf accuracy    <       0.00000002 Ry

     iteration # 26     ecut=    50.00 Ry     beta=0.70
     Davidson diagonalization with overlap
     ethr =  1.98E-12,  avg # of iterations =  2.0

     negative rho (up, down):  1.970E+00 0.000E+00

     total cpu time spent up to now is     2921.3 secs

     total energy              =   -7379.98359354 Ry
     Harris-Foulkes estimate   =   -7379.98359355 Ry
     estimated scf accuracy    <       0.00000003 Ry

     iteration # 27     ecut=    50.00 Ry     beta=0.70
     Davidson diagonalization with overlap
     ethr =  1.98E-12,  avg # of iterations =  2.0

     negative rho (up, down):  1.970E+00 0.000E+00

     total cpu time spent up to now is     3007.8 secs

     End of self-consistent calculation

          k = 0.2500 0.2500 0.0833 (167653 PWs)   bands (ev):

   -19.5165  -7.3547  -6.8283  -6.2989  -6.2979  -5.8604  -5.4573  -5.3585
    -5.3579  -5.1366  -5.1363  -5.0406  -5.0393  -4.9063  -4.8984  -4.7890
    -4.7006  -4.6963  -4.6755  -4.6750  -4.4946  -4.4930  -4.4927  -4.4665
    -4.4622  -4.4614  -4.4573  -4.4052  -4.4043  -4.4017  -4.4013  -4.3378
    -4.3095  -4.3093  -4.2538  -4.2496  -4.2481  -4.2128  -4.2120  -4.1982
    -4.1934  -4.1749  -4.1747  -4.1387  -4.1053  -4.1052  -4.1026  -4.0993
    -4.0991  -4.0698  -4.0409  -4.0386  -4.0091  -4.0087  -4.0057  -4.0047
    -4.0031  -3.9967  -3.9666  -3.9648  -3.9051  -3.9043  -3.8729  -3.8477
    -3.8393  -3.8359  -3.8349  -3.8131  -3.8124  -3.8013  -3.7509  -3.7505
    -3.7451  -3.7446  -3.6618  -3.6593  -3.6429  -3.6369  -3.6026  -3.6023
    -3.5860  -3.5647  -3.5613  -3.5488  -3.5167  -3.5162  -3.5142  -3.5098
    -3.4899  -3.4891  -3.4093  -3.4086  -3.4063  -3.3922  -3.3781  -3.3736
    -3.3621  -3.3617  -3.3549  -3.3543  -3.3122  -3.3117  -3.2904  -3.2881
    -3.2536  -3.2515  -3.2268  -3.2053  -3.2048  -3.1592  -3.1585  -3.1259
    -3.0984  -3.0976  -3.0973  -3.0966  -3.0931  -3.0926  -3.0676  -3.0556
    -3.0183  -3.0178  -2.9973  -2.9729  -2.9709  -2.9697  -2.9639  -2.9632
    -2.9593  -2.9590  -2.9244  -2.9230  -2.9228  -2.9178  -2.9171  -2.9123
    -2.8567  -2.8527  -2.8480  -2.8469  -2.8257  -2.8249  -2.8201  -2.7306
    -2.7211  -2.7204  -2.7117  -2.7105  -2.7055  -2.7045  -2.7029  -2.6950
    -2.6942  -2.6850  -2.6764  -2.6758  -2.6731  -2.6685  -2.6590  -2.6542
    -2.6513  -2.6304  -2.6193  -2.6184  -2.6035  -2.6027  -2.5861  -2.5859
    -2.5768  -2.5766  -2.5559  -2.5443  -2.5439  -2.5403  -2.5383  -2.5058
    -2.5020  -2.5016  -2.4444  -2.4397  -2.4278  -2.4257  -2.4154  -2.4127
    -2.3887  -2.3872  -2.3828  -2.3722  -2.3703  -2.3611  -2.3587  -2.3443
    -2.3418  -2.3153  -2.3146  -2.3061  -2.3049  -2.2952  -2.2947  -2.2817
    -2.2658  -2.2458  -2.1762  -2.1741  -2.1543  -2.1535  -2.1459  -2.1423
    -2.0935  -2.0917  -2.0785  -2.0572  -2.0469  -2.0454  -2.0264  -2.0106
    -2.0080  -1.9996  -1.9949  -1.9641  -1.9583  -1.9554  -1.9464  -1.9450
    -1.9418  -1.9394  -1.9286  -1.9143  -1.9102  -1.9029  -1.9018  -1.9016
    -1.9011  -1.8997  -1.8861  -1.8719  -1.8662  -1.8637  -1.8583  -1.8501
    -1.8446  -1.8428  -1.8406  -1.8382  -1.8328  -1.8193  -1.7973  -1.7689
    -1.7436  -1.7341  -1.7167  -1.6886  -1.6882  -1.6877  -1.6775  -1.6748
    -1.6635  -1.6606  -1.6557  -1.6493  -1.6448  -1.6418  -1.6248  -1.6149
    -1.5874  -1.5776  -1.5695  -1.5480  -1.5408  -1.5095  -1.5039  -1.4581
    -1.4553  -1.4346  -1.4114  -1.4103  -1.4098  -1.4044  -1.4015  -1.3870
    -1.3836  -1.3833  -1.3829  -1.3813  -1.3810  -1.3796  -1.3778  -1.3583
    -1.3511  -1.3421  -1.3182  -1.3175  -1.3163  -1.2958  -1.2940  -1.2895
    -1.2889  -1.2859  -1.2674  -1.2488  -1.2419  -1.2238  -1.2224  -1.2056
    -1.2026  -1.1903  -1.1818  -1.1622  -1.1613  -1.1553  -1.1472  -1.1157
    -1.1139  -1.1041  -1.1032  -1.1023  -1.0936  -1.0769  -1.0759  -1.0628
    -1.0547  -1.0530  -1.0436  -1.0418  -1.0415  -1.0337  -1.0303  -1.0203
    -1.0188  -1.0119  -1.0118  -1.0049  -1.0012  -0.9873  -0.9851  -0.9431
    -0.9419  -0.9408  -0.9396  -0.9339  -0.9286  -0.9066  -0.8981  -0.8929
    -0.8743  -0.8719  -0.8659  -0.8621  -0.8577  -0.8486  -0.8423  -0.8131
    -0.8071  -0.8014  -0.7992  -0.7812  -0.7806  -0.7657  -0.7419  -0.7335
    -0.7157  -0.7151  -0.6785  -0.6780  -0.6755  -0.6734  -0.6688  -0.6676
    -0.6668  -0.6663  -0.6613  -0.6600  -0.6276  -0.6273  -0.6260  -0.6246
    -0.6236  -0.6127  -0.6095  -0.6011  -0.5816  -0.3226  -0.3111  -0.2677
    -0.2537  -0.2350  -0.1778  -0.0254  -0.0246   0.0132   0.2902   0.2943
     0.6307   0.6385   0.6746   0.6753   0.7248   0.7258   0.8838   0.8917
     1.0128   1.0152   1.1315   1.6239   1.6632   1.6710   1.7063   1.7074
     1.8408   1.8485   1.8997   1.9048   2.0824   2.0834   2.3674   2.3936
     2.3992   2.4165   2.8477   2.8546   2.8733   2.8742   2.8910   2.8917
     2.9555   2.9574   3.1058   3.2327   3.2352   3.4228   3.4242   3.5313
     3.6028   3.6053   3.9012   3.9033   3.9599   3.9621   3.9638   4.0915
     4.1085   4.1146   4.1318   4.4024   4.4056   4.4410   4.4422   4.5553
     4.5589   4.6207   4.6301   4.8858   5.3858   5.4994   5.5103   5.5833
     5.6430   5.7108   5.7130   5.7834   5.7840   5.7977   5.8017   5.8676
     5.9087   5.9165   6.0706   6.1736   6.1988   6.2064   6.2124   6.2147
     6.2161   6.2277   6.3212   6.3690   6.3889   6.4048   6.4875   6.5236

          k = 0.2500 0.2500-0.2500 (167588 PWs)   bands (ev):

   -19.5165  -7.3547  -6.8283  -6.2989  -6.2979  -5.8604  -5.4573  -5.3585
    -5.3579  -5.1366  -5.1363  -5.0406  -5.0393  -4.9063  -4.8984  -4.7890
    -4.7006  -4.6963  -4.6755  -4.6750  -4.4946  -4.4930  -4.4927  -4.4665
    -4.4622  -4.4614  -4.4573  -4.4052  -4.4043  -4.4017  -4.4013  -4.3378
    -4.3095  -4.3093  -4.2538  -4.2496  -4.2481  -4.2128  -4.2120  -4.1982
    -4.1934  -4.1749  -4.1747  -4.1387  -4.1053  -4.1052  -4.1026  -4.0993
    -4.0991  -4.0698  -4.0409  -4.0386  -4.0091  -4.0087  -4.0057  -4.0047
    -4.0031  -3.9967  -3.9666  -3.9648  -3.9051  -3.9043  -3.8729  -3.8477
    -3.8393  -3.8359  -3.8348  -3.8131  -3.8124  -3.8013  -3.7509  -3.7505
    -3.7451  -3.7446  -3.6618  -3.6593  -3.6429  -3.6369  -3.6026  -3.6023
    -3.5860  -3.5647  -3.5613  -3.5488  -3.5167  -3.5162  -3.5142  -3.5098
    -3.4899  -3.4891  -3.4093  -3.4086  -3.4063  -3.3922  -3.3781  -3.3736
    -3.3621  -3.3617  -3.3549  -3.3543  -3.3122  -3.3117  -3.2904  -3.2881
    -3.2536  -3.2515  -3.2268  -3.2053  -3.2048  -3.1592  -3.1585  -3.1259
    -3.0984  -3.0976  -3.0973  -3.0966  -3.0931  -3.0926  -3.0676  -3.0556
    -3.0183  -3.0178  -2.9973  -2.9729  -2.9709  -2.9697  -2.9639  -2.9632
    -2.9593  -2.9590  -2.9244  -2.9230  -2.9228  -2.9178  -2.9171  -2.9123
    -2.8567  -2.8527  -2.8480  -2.8469  -2.8257  -2.8249  -2.8201  -2.7306
    -2.7211  -2.7204  -2.7117  -2.7105  -2.7055  -2.7045  -2.7029  -2.6950
    -2.6942  -2.6850  -2.6764  -2.6758  -2.6731  -2.6685  -2.6590  -2.6542
    -2.6513  -2.6304  -2.6193  -2.6184  -2.6035  -2.6027  -2.5861  -2.5859
    -2.5768  -2.5766  -2.5559  -2.5443  -2.5439  -2.5403  -2.5383  -2.5058
    -2.5020  -2.5016  -2.4444  -2.4397  -2.4278  -2.4257  -2.4154  -2.4127
    -2.3887  -2.3872  -2.3828  -2.3722  -2.3703  -2.3611  -2.3587  -2.3443
    -2.3418  -2.3153  -2.3146  -2.3061  -2.3049  -2.2952  -2.2947  -2.2817
    -2.2657  -2.2458  -2.1762  -2.1741  -2.1543  -2.1535  -2.1459  -2.1423
    -2.0934  -2.0917  -2.0785  -2.0572  -2.0469  -2.0454  -2.0264  -2.0106
    -2.0080  -1.9997  -1.9949  -1.9641  -1.9583  -1.9554  -1.9464  -1.9450
    -1.9418  -1.9394  -1.9286  -1.9143  -1.9102  -1.9029  -1.9018  -1.9016
    -1.9011  -1.8997  -1.8861  -1.8719  -1.8662  -1.8638  -1.8583  -1.8501
    -1.8446  -1.8428  -1.8406  -1.8382  -1.8328  -1.8193  -1.7973  -1.7689
    -1.7436  -1.7341  -1.7167  -1.6886  -1.6882  -1.6877  -1.6775  -1.6747
    -1.6635  -1.6606  -1.6557  -1.6493  -1.6448  -1.6418  -1.6248  -1.6149
    -1.5874  -1.5776  -1.5695  -1.5480  -1.5408  -1.5095  -1.5039  -1.4581
    -1.4553  -1.4346  -1.4114  -1.4103  -1.4099  -1.4044  -1.4016  -1.3870
    -1.3836  -1.3833  -1.3829  -1.3813  -1.3810  -1.3796  -1.3778  -1.3583
    -1.3511  -1.3421  -1.3182  -1.3175  -1.3163  -1.2958  -1.2940  -1.2895
    -1.2889  -1.2859  -1.2674  -1.2488  -1.2419  -1.2238  -1.2224  -1.2056
    -1.2026  -1.1903  -1.1818  -1.1622  -1.1613  -1.1553  -1.1472  -1.1157
    -1.1138  -1.1041  -1.1032  -1.1023  -1.0936  -1.0769  -1.0759  -1.0628
    -1.0547  -1.0530  -1.0436  -1.0418  -1.0415  -1.0337  -1.0303  -1.0203
    -1.0188  -1.0119  -1.0117  -1.0049  -1.0012  -0.9873  -0.9851  -0.9431
    -0.9419  -0.9408  -0.9396  -0.9339  -0.9286  -0.9066  -0.8981  -0.8929
    -0.8743  -0.8719  -0.8659  -0.8620  -0.8577  -0.8486  -0.8423  -0.8131
    -0.8071  -0.8014  -0.7992  -0.7812  -0.7806  -0.7657  -0.7419  -0.7335
    -0.7157  -0.7151  -0.6785  -0.6780  -0.6755  -0.6734  -0.6689  -0.6676
    -0.6668  -0.6663  -0.6613  -0.6600  -0.6276  -0.6273  -0.6260  -0.6246
    -0.6236  -0.6127  -0.6095  -0.6011  -0.5816  -0.3226  -0.3111  -0.2677
    -0.2537  -0.2350  -0.1778  -0.0254  -0.0246   0.0132   0.2902   0.2943
     0.6307   0.6385   0.6746   0.6753   0.7248   0.7258   0.8838   0.8917
     1.0128   1.0152   1.1315   1.6239   1.6632   1.6710   1.7063   1.7074
     1.8408   1.8485   1.8997   1.9048   2.0824   2.0834   2.3674   2.3936
     2.3992   2.4165   2.8477   2.8546   2.8733   2.8742   2.8910   2.8917
     2.9555   2.9574   3.1058   3.2327   3.2352   3.4228   3.4242   3.5313
     3.6028   3.6053   3.9012   3.9033   3.9599   3.9621   3.9638   4.0916
     4.1085   4.1146   4.1318   4.4024   4.4055   4.4410   4.4422   4.5553
     4.5589   4.6207   4.6301   4.8859   5.3814   5.4993   5.5099   5.5834
     5.6331   5.7107   5.7127   5.7821   5.7835   5.7977   5.8017   5.8566
     5.9106   5.9425   6.1326   6.1547   6.1838   6.1995   6.2118   6.2136
     6.2160   6.2273   6.3133   6.3744   6.3929   6.4740   6.5185   6.5350

          k =-0.2500-0.2500 0.0833 (167653 PWs)   bands (ev):

   -19.5165  -7.3547  -6.8283  -6.2989  -6.2979  -5.8604  -5.4573  -5.3585
    -5.3579  -5.1366  -5.1363  -5.0406  -5.0393  -4.9063  -4.8984  -4.7890
    -4.7006  -4.6963  -4.6755  -4.6750  -4.4946  -4.4930  -4.4927  -4.4665
    -4.4622  -4.4614  -4.4573  -4.4052  -4.4043  -4.4017  -4.4013  -4.3378
    -4.3095  -4.3093  -4.2538  -4.2496  -4.2481  -4.2128  -4.2120  -4.1982
    -4.1934  -4.1749  -4.1747  -4.1387  -4.1053  -4.1052  -4.1026  -4.0993
    -4.0991  -4.0698  -4.0409  -4.0386  -4.0091  -4.0087  -4.0057  -4.0047
    -4.0031  -3.9967  -3.9666  -3.9648  -3.9051  -3.9043  -3.8729  -3.8477
    -3.8393  -3.8359  -3.8349  -3.8131  -3.8124  -3.8013  -3.7509  -3.7505
    -3.7451  -3.7446  -3.6618  -3.6593  -3.6429  -3.6369  -3.6026  -3.6023
    -3.5860  -3.5647  -3.5613  -3.5488  -3.5167  -3.5162  -3.5142  -3.5098
    -3.4899  -3.4891  -3.4093  -3.4086  -3.4063  -3.3922  -3.3781  -3.3736
    -3.3621  -3.3617  -3.3549  -3.3543  -3.3122  -3.3117  -3.2904  -3.2881
    -3.2536  -3.2515  -3.2268  -3.2053  -3.2048  -3.1592  -3.1585  -3.1259
    -3.0984  -3.0976  -3.0973  -3.0966  -3.0931  -3.0926  -3.0676  -3.0556
    -3.0183  -3.0178  -2.9973  -2.9729  -2.9709  -2.9697  -2.9639  -2.9632
    -2.9593  -2.9590  -2.9244  -2.9230  -2.9228  -2.9178  -2.9171  -2.9123
    -2.8567  -2.8527  -2.8480  -2.8469  -2.8257  -2.8249  -2.8201  -2.7306
    -2.7211  -2.7204  -2.7117  -2.7105  -2.7055  -2.7045  -2.7029  -2.6950
    -2.6942  -2.6850  -2.6764  -2.6758  -2.6731  -2.6685  -2.6590  -2.6542
    -2.6513  -2.6304  -2.6193  -2.6184  -2.6035  -2.6027  -2.5861  -2.5859
    -2.5768  -2.5766  -2.5559  -2.5443  -2.5439  -2.5403  -2.5383  -2.5058
    -2.5020  -2.5016  -2.4444  -2.4397  -2.4278  -2.4257  -2.4154  -2.4127
    -2.3887  -2.3872  -2.3828  -2.3722  -2.3703  -2.3611  -2.3587  -2.3443
    -2.3418  -2.3153  -2.3146  -2.3061  -2.3049  -2.2952  -2.2947  -2.2817
    -2.2658  -2.2458  -2.1762  -2.1741  -2.1543  -2.1535  -2.1459  -2.1423
    -2.0935  -2.0917  -2.0785  -2.0572  -2.0469  -2.0454  -2.0264  -2.0106
    -2.0080  -1.9996  -1.9949  -1.9641  -1.9583  -1.9554  -1.9464  -1.9450
    -1.9418  -1.9394  -1.9286  -1.9143  -1.9102  -1.9029  -1.9018  -1.9016
    -1.9011  -1.8997  -1.8861  -1.8719  -1.8662  -1.8637  -1.8583  -1.8501
    -1.8446  -1.8428  -1.8406  -1.8382  -1.8328  -1.8193  -1.7973  -1.7689
    -1.7436  -1.7341  -1.7167  -1.6886  -1.6882  -1.6877  -1.6775  -1.6748
    -1.6635  -1.6606  -1.6557  -1.6493  -1.6448  -1.6418  -1.6248  -1.6149
    -1.5874  -1.5776  -1.5695  -1.5480  -1.5408  -1.5095  -1.5039  -1.4581
    -1.4553  -1.4346  -1.4114  -1.4103  -1.4098  -1.4044  -1.4015  -1.3870
    -1.3836  -1.3833  -1.3829  -1.3813  -1.3810  -1.3796  -1.3778  -1.3583
    -1.3511  -1.3421  -1.3182  -1.3175  -1.3163  -1.2958  -1.2940  -1.2895
    -1.2889  -1.2859  -1.2674  -1.2488  -1.2419  -1.2238  -1.2224  -1.2056
    -1.2026  -1.1903  -1.1818  -1.1622  -1.1613  -1.1553  -1.1472  -1.1157
    -1.1139  -1.1041  -1.1032  -1.1023  -1.0936  -1.0769  -1.0759  -1.0628
    -1.0547  -1.0530  -1.0436  -1.0418  -1.0415  -1.0337  -1.0303  -1.0203
    -1.0188  -1.0119  -1.0118  -1.0049  -1.0012  -0.9873  -0.9851  -0.9431
    -0.9419  -0.9408  -0.9396  -0.9339  -0.9286  -0.9066  -0.8981  -0.8929
    -0.8743  -0.8719  -0.8659  -0.8621  -0.8577  -0.8486  -0.8423  -0.8131
    -0.8071  -0.8014  -0.7992  -0.7812  -0.7806  -0.7657  -0.7419  -0.7335
    -0.7157  -0.7151  -0.6785  -0.6780  -0.6755  -0.6734  -0.6688  -0.6676
    -0.6668  -0.6663  -0.6613  -0.6600  -0.6276  -0.6273  -0.6260  -0.6246
    -0.6236  -0.6127  -0.6095  -0.6011  -0.5816  -0.3226  -0.3111  -0.2677
    -0.2537  -0.2350  -0.1778  -0.0254  -0.0246   0.0132   0.2902   0.2943
     0.6307   0.6385   0.6746   0.6753   0.7248   0.7258   0.8838   0.8917
     1.0128   1.0152   1.1315   1.6239   1.6632   1.6710   1.7063   1.7074
     1.8408   1.8485   1.8997   1.9048   2.0824   2.0834   2.3674   2.3936
     2.3992   2.4165   2.8477   2.8546   2.8733   2.8742   2.8910   2.8917
     2.9555   2.9574   3.1058   3.2327   3.2352   3.4228   3.4242   3.5313
     3.6028   3.6053   3.9012   3.9033   3.9599   3.9621   3.9638   4.0915
     4.1085   4.1146   4.1318   4.4024   4.4056   4.4410   4.4422   4.5553
     4.5589   4.6207   4.6301   4.8858   5.3855   5.4994   5.5102   5.5833
     5.6442   5.7109   5.7132   5.7832   5.7837   5.7977   5.8017   5.8607
     5.9104   5.9192   6.0754   6.1726   6.1989   6.2060   6.2124   6.2149
     6.2161   6.2278   6.3308   6.3669   6.3860   6.3997   6.4767   6.5230

          k =-0.2500 0.2500-0.0833 (167653 PWs)   bands (ev):

   -19.5165  -7.3547  -6.8283  -6.2992  -6.2976  -5.8604  -5.4573  -5.3589
    -5.3575  -5.1367  -5.1363  -5.0409  -5.0390  -4.9063  -4.8983  -4.7890
    -4.7008  -4.6963  -4.6756  -4.6749  -4.4947  -4.4933  -4.4923  -4.4665
    -4.4622  -4.4615  -4.4573  -4.4055  -4.4040  -4.4021  -4.4011  -4.3377
    -4.3095  -4.3092  -4.2539  -4.2494  -4.2483  -4.2130  -4.2115  -4.1981
    -4.1934  -4.1748  -4.1747  -4.1390  -4.1057  -4.1050  -4.1027  -4.0996
    -4.0986  -4.0700  -4.0402  -4.0388  -4.0095  -4.0084  -4.0055  -4.0047
    -4.0032  -3.9969  -3.9665  -3.9644  -3.9054  -3.9042  -3.8729  -3.8473
    -3.8402  -3.8357  -3.8348  -3.8130  -3.8124  -3.8013  -3.7512  -3.7505
    -3.7455  -3.7443  -3.6614  -3.6592  -3.6399  -3.6372  -3.6026  -3.6023
    -3.5860  -3.5676  -3.5616  -3.5475  -3.5170  -3.5159  -3.5146  -3.5128
    -3.4898  -3.4890  -3.4089  -3.4086  -3.4045  -3.3923  -3.3770  -3.3741
    -3.3622  -3.3616  -3.3553  -3.3545  -3.3121  -3.3113  -3.2906  -3.2886
    -3.2536  -3.2516  -3.2268  -3.2050  -3.2046  -3.1593  -3.1586  -3.1262
    -3.0989  -3.0979  -3.0969  -3.0969  -3.0930  -3.0926  -3.0675  -3.0557
    -3.0183  -3.0178  -2.9973  -2.9729  -2.9708  -2.9698  -2.9643  -2.9628
    -2.9594  -2.9590  -2.9244  -2.9230  -2.9225  -2.9176  -2.9170  -2.9123
    -2.8566  -2.8525  -2.8485  -2.8468  -2.8258  -2.8247  -2.8204  -2.7307
    -2.7213  -2.7202  -2.7118  -2.7103  -2.7058  -2.7039  -2.7031  -2.6950
    -2.6942  -2.6851  -2.6764  -2.6758  -2.6731  -2.6685  -2.6588  -2.6539
    -2.6513  -2.6304  -2.6195  -2.6184  -2.6034  -2.6027  -2.5865  -2.5857
    -2.5771  -2.5764  -2.5559  -2.5444  -2.5437  -2.5398  -2.5385  -2.5056
    -2.5021  -2.5016  -2.4443  -2.4398  -2.4280  -2.4257  -2.4151  -2.4129
    -2.3885  -2.3871  -2.3828  -2.3725  -2.3702  -2.3614  -2.3586  -2.3444
    -2.3418  -2.3153  -2.3148  -2.3064  -2.3049  -2.2956  -2.2944  -2.2821
    -2.2658  -2.2456  -2.1764  -2.1739  -2.1545  -2.1534  -2.1460  -2.1424
    -2.0941  -2.0916  -2.0787  -2.0573  -2.0464  -2.0456  -2.0264  -2.0106
    -2.0076  -1.9994  -1.9949  -1.9637  -1.9583  -1.9556  -1.9464  -1.9448
    -1.9411  -1.9390  -1.9288  -1.9140  -1.9103  -1.9029  -1.9020  -1.9016
    -1.9010  -1.8992  -1.8861  -1.8720  -1.8660  -1.8637  -1.8577  -1.8497
    -1.8447  -1.8435  -1.8404  -1.8381  -1.8327  -1.8185  -1.7978  -1.7677
    -1.7430  -1.7345  -1.7130  -1.6887  -1.6880  -1.6874  -1.6797  -1.6744
    -1.6661  -1.6602  -1.6563  -1.6477  -1.6454  -1.6430  -1.6252  -1.6159
    -1.5876  -1.5778  -1.5696  -1.5484  -1.5405  -1.5091  -1.5046  -1.4581
    -1.4550  -1.4348  -1.4110  -1.4104  -1.4099  -1.4044  -1.4019  -1.3854
    -1.3844  -1.3837  -1.3827  -1.3814  -1.3807  -1.3799  -1.3780  -1.3583
    -1.3511  -1.3418  -1.3185  -1.3180  -1.3168  -1.2951  -1.2946  -1.2900
    -1.2888  -1.2853  -1.2671  -1.2494  -1.2411  -1.2240  -1.2228  -1.2055
    -1.2026  -1.1905  -1.1817  -1.1629  -1.1610  -1.1552  -1.1470  -1.1156
    -1.1124  -1.1049  -1.1034  -1.1022  -1.0933  -1.0768  -1.0759  -1.0632
    -1.0550  -1.0529  -1.0440  -1.0421  -1.0410  -1.0341  -1.0308  -1.0196
    -1.0189  -1.0121  -1.0116  -1.0046  -1.0017  -0.9874  -0.9856  -0.9433
    -0.9411  -0.9409  -0.9391  -0.9339  -0.9288  -0.9079  -0.8978  -0.8930
    -0.8752  -0.8706  -0.8660  -0.8619  -0.8578  -0.8486  -0.8418  -0.8136
    -0.8067  -0.8015  -0.7990  -0.7812  -0.7804  -0.7657  -0.7422  -0.7338
    -0.7163  -0.7145  -0.6783  -0.6777  -0.6758  -0.6734  -0.6688  -0.6676
    -0.6672  -0.6660  -0.6613  -0.6601  -0.6287  -0.6268  -0.6266  -0.6243
    -0.6237  -0.6122  -0.6096  -0.5998  -0.5818  -0.3226  -0.3111  -0.2697
    -0.2508  -0.2351  -0.1774  -0.0254  -0.0242   0.0125   0.2891   0.2955
     0.6283   0.6404   0.6744   0.6760   0.7233   0.7278   0.8818   0.8940
     1.0127   1.0150   1.1317   1.6234   1.6610   1.6709   1.7066   1.7070
     1.8344   1.8557   1.8987   1.9072   2.0811   2.0846   2.3664   2.3905
     2.4017   2.4162   2.8397   2.8579   2.8732   2.8774   2.8902   2.8924
     2.9563   2.9568   3.1042   3.2325   3.2415   3.4224   3.4301   3.5304
     3.6006   3.6064   3.8990   3.9070   3.9531   3.9619   3.9657   4.0949
     4.1056   4.1103   4.1376   4.4040   4.4050   4.4358   4.4458   4.5521
     4.5611   4.6116   4.6332   4.8843   5.3916   5.5003   5.5087   5.5818
     5.6423   5.7109   5.7159   5.7768   5.7891   5.8007   5.8010   5.8687
     5.9122   5.9162   6.0716   6.1872   6.1948   6.2034   6.2060   6.2120
     6.2159   6.2246   6.3240   6.3702   6.3866   6.3976   6.4887   6.5209

          k = 0.2500-0.2500-0.0833 (167653 PWs)   bands (ev):

   -19.5165  -7.3547  -6.8283  -6.2992  -6.2976  -5.8604  -5.4573  -5.3589
    -5.3575  -5.1367  -5.1363  -5.0409  -5.0390  -4.9063  -4.8983  -4.7890
    -4.7008  -4.6963  -4.6756  -4.6749  -4.4947  -4.4933  -4.4923  -4.4665
    -4.4622  -4.4615  -4.4573  -4.4055  -4.4040  -4.4021  -4.4011  -4.3377
    -4.3095  -4.3092  -4.2539  -4.2494  -4.2483  -4.2130  -4.2115  -4.1981
    -4.1934  -4.1748  -4.1747  -4.1390  -4.1057  -4.1050  -4.1027  -4.0996
    -4.0986  -4.0700  -4.0402  -4.0388  -4.0095  -4.0084  -4.0055  -4.0047
    -4.0032  -3.9969  -3.9665  -3.9644  -3.9054  -3.9042  -3.8729  -3.8473
    -3.8402  -3.8357  -3.8348  -3.8130  -3.8124  -3.8013  -3.7512  -3.7505
    -3.7455  -3.7443  -3.6614  -3.6592  -3.6399  -3.6372  -3.6026  -3.6023
    -3.5860  -3.5676  -3.5616  -3.5475  -3.5170  -3.5159  -3.5146  -3.5128
    -3.4898  -3.4890  -3.4089  -3.4086  -3.4045  -3.3923  -3.3770  -3.3741
    -3.3622  -3.3616  -3.3553  -3.3545  -3.3121  -3.3113  -3.2906  -3.2886
    -3.2536  -3.2516  -3.2268  -3.2050  -3.2046  -3.1593  -3.1586  -3.1262
    -3.0989  -3.0979  -3.0969  -3.0969  -3.0930  -3.0926  -3.0675  -3.0557
    -3.0183  -3.0178  -2.9973  -2.9729  -2.9708  -2.9698  -2.9643  -2.9628
    -2.9594  -2.9590  -2.9244  -2.9230  -2.9225  -2.9176  -2.9170  -2.9123
    -2.8566  -2.8525  -2.8485  -2.8468  -2.8258  -2.8247  -2.8204  -2.7307
    -2.7213  -2.7202  -2.7118  -2.7103  -2.7058  -2.7039  -2.7031  -2.6950
    -2.6942  -2.6851  -2.6764  -2.6758  -2.6731  -2.6685  -2.6588  -2.6539
    -2.6513  -2.6304  -2.6195  -2.6184  -2.6034  -2.6027  -2.5865  -2.5857
    -2.5771  -2.5764  -2.5559  -2.5444  -2.5437  -2.5398  -2.5385  -2.5056
    -2.5021  -2.5016  -2.4443  -2.4398  -2.4280  -2.4257  -2.4151  -2.4129
    -2.3885  -2.3871  -2.3828  -2.3725  -2.3702  -2.3614  -2.3586  -2.3444
    -2.3418  -2.3153  -2.3148  -2.3064  -2.3049  -2.2956  -2.2944  -2.2821
    -2.2658  -2.2456  -2.1764  -2.1739  -2.1545  -2.1534  -2.1460  -2.1424
    -2.0941  -2.0916  -2.0787  -2.0573  -2.0464  -2.0456  -2.0264  -2.0106
    -2.0076  -1.9994  -1.9949  -1.9637  -1.9583  -1.9556  -1.9464  -1.9448
    -1.9411  -1.9390  -1.9288  -1.9140  -1.9103  -1.9029  -1.9020  -1.9016
    -1.9010  -1.8992  -1.8861  -1.8720  -1.8660  -1.8637  -1.8577  -1.8497
    -1.8447  -1.8435  -1.8404  -1.8381  -1.8327  -1.8185  -1.7978  -1.7677
    -1.7430  -1.7345  -1.7130  -1.6887  -1.6880  -1.6874  -1.6797  -1.6744
    -1.6661  -1.6602  -1.6563  -1.6477  -1.6454  -1.6430  -1.6252  -1.6159
    -1.5876  -1.5778  -1.5696  -1.5484  -1.5405  -1.5091  -1.5046  -1.4581
    -1.4550  -1.4348  -1.4110  -1.4104  -1.4099  -1.4044  -1.4019  -1.3854
    -1.3844  -1.3837  -1.3827  -1.3814  -1.3807  -1.3799  -1.3780  -1.3583
    -1.3511  -1.3418  -1.3185  -1.3180  -1.3168  -1.2951  -1.2946  -1.2900
    -1.2888  -1.2853  -1.2671  -1.2494  -1.2411  -1.2240  -1.2228  -1.2055
    -1.2026  -1.1905  -1.1817  -1.1629  -1.1610  -1.1552  -1.1470  -1.1156
    -1.1124  -1.1049  -1.1034  -1.1022  -1.0933  -1.0768  -1.0759  -1.0632
    -1.0550  -1.0529  -1.0440  -1.0421  -1.0410  -1.0341  -1.0308  -1.0196
    -1.0189  -1.0121  -1.0116  -1.0046  -1.0017  -0.9874  -0.9856  -0.9433
    -0.9411  -0.9409  -0.9391  -0.9339  -0.9288  -0.9079  -0.8978  -0.8930
    -0.8752  -0.8706  -0.8660  -0.8619  -0.8578  -0.8486  -0.8418  -0.8136
    -0.8067  -0.8015  -0.7990  -0.7812  -0.7804  -0.7657  -0.7422  -0.7338
    -0.7163  -0.7145  -0.6783  -0.6777  -0.6758  -0.6734  -0.6688  -0.6676
    -0.6672  -0.6660  -0.6613  -0.6601  -0.6287  -0.6268  -0.6266  -0.6243
    -0.6237  -0.6122  -0.6096  -0.5998  -0.5818  -0.3226  -0.3111  -0.2697
    -0.2508  -0.2351  -0.1774  -0.0254  -0.0242   0.0125   0.2891   0.2955
     0.6283   0.6404   0.6744   0.6760   0.7233   0.7278   0.8818   0.8940
     1.0127   1.0150   1.1317   1.6234   1.6610   1.6709   1.7066   1.7070
     1.8344   1.8557   1.8987   1.9072   2.0811   2.0846   2.3664   2.3905
     2.4017   2.4162   2.8397   2.8579   2.8732   2.8774   2.8902   2.8924
     2.9563   2.9568   3.1042   3.2325   3.2415   3.4224   3.4301   3.5304
     3.6006   3.6064   3.8990   3.9070   3.9531   3.9619   3.9657   4.0949
     4.1056   4.1103   4.1376   4.4040   4.4050   4.4358   4.4458   4.5521
     4.5611   4.6116   4.6332   4.8843   5.3916   5.5004   5.5087   5.5820
     5.6423   5.7109   5.7159   5.7763   5.7894   5.8007   5.8010   5.8663
     5.9123   5.9160   6.0779   6.1868   6.1948   6.2034   6.2047   6.2121
     6.2159   6.2244   6.3233   6.3612   6.3845   6.4048   6.4903   6.5247

          k =-0.2500 0.2500 0.2500 (167588 PWs)   bands (ev):

   -19.5165  -7.3547  -6.8283  -6.2992  -6.2976  -5.8604  -5.4573  -5.3589
    -5.3575  -5.1367  -5.1363  -5.0409  -5.0390  -4.9063  -4.8983  -4.7890
    -4.7008  -4.6963  -4.6756  -4.6749  -4.4947  -4.4933  -4.4923  -4.4665
    -4.4622  -4.4615  -4.4573  -4.4055  -4.4040  -4.4021  -4.4010  -4.3377
    -4.3095  -4.3092  -4.2539  -4.2495  -4.2483  -4.2130  -4.2115  -4.1981
    -4.1934  -4.1748  -4.1747  -4.1390  -4.1057  -4.1050  -4.1027  -4.0996
    -4.0986  -4.0700  -4.0402  -4.0388  -4.0095  -4.0084  -4.0055  -4.0047
    -4.0032  -3.9969  -3.9665  -3.9644  -3.9054  -3.9042  -3.8729  -3.8473
    -3.8402  -3.8357  -3.8348  -3.8130  -3.8124  -3.8013  -3.7512  -3.7505
    -3.7455  -3.7443  -3.6614  -3.6592  -3.6399  -3.6372  -3.6026  -3.6023
    -3.5860  -3.5676  -3.5616  -3.5475  -3.5170  -3.5159  -3.5146  -3.5128
    -3.4898  -3.4890  -3.4089  -3.4086  -3.4045  -3.3923  -3.3770  -3.3741
    -3.3622  -3.3616  -3.3553  -3.3545  -3.3121  -3.3113  -3.2906  -3.2886
    -3.2536  -3.2516  -3.2268  -3.2050  -3.2046  -3.1592  -3.1586  -3.1262
    -3.0989  -3.0979  -3.0969  -3.0969  -3.0930  -3.0926  -3.0675  -3.0557
    -3.0183  -3.0178  -2.9973  -2.9729  -2.9708  -2.9698  -2.9643  -2.9628
    -2.9594  -2.9590  -2.9244  -2.9230  -2.9225  -2.9176  -2.9170  -2.9123
    -2.8566  -2.8525  -2.8485  -2.8468  -2.8258  -2.8247  -2.8203  -2.7307
    -2.7213  -2.7202  -2.7118  -2.7103  -2.7058  -2.7039  -2.7031  -2.6950
    -2.6942  -2.6851  -2.6764  -2.6758  -2.6731  -2.6686  -2.6588  -2.6539
    -2.6513  -2.6304  -2.6195  -2.6184  -2.6034  -2.6027  -2.5865  -2.5857
    -2.5771  -2.5763  -2.5559  -2.5444  -2.5437  -2.5398  -2.5385  -2.5057
    -2.5021  -2.5016  -2.4443  -2.4398  -2.4280  -2.4257  -2.4151  -2.4129
    -2.3885  -2.3871  -2.3828  -2.3725  -2.3702  -2.3614  -2.3586  -2.3444
    -2.3418  -2.3153  -2.3148  -2.3064  -2.3049  -2.2956  -2.2944  -2.2821
    -2.2658  -2.2456  -2.1764  -2.1739  -2.1545  -2.1534  -2.1460  -2.1424
    -2.0941  -2.0915  -2.0787  -2.0573  -2.0464  -2.0456  -2.0264  -2.0106
    -2.0076  -1.9994  -1.9949  -1.9637  -1.9583  -1.9556  -1.9464  -1.9448
    -1.9411  -1.9390  -1.9288  -1.9140  -1.9103  -1.9029  -1.9020  -1.9016
    -1.9010  -1.8992  -1.8861  -1.8720  -1.8660  -1.8637  -1.8577  -1.8497
    -1.8447  -1.8435  -1.8404  -1.8381  -1.8327  -1.8185  -1.7978  -1.7677
    -1.7430  -1.7345  -1.7130  -1.6887  -1.6880  -1.6874  -1.6797  -1.6744
    -1.6661  -1.6601  -1.6563  -1.6477  -1.6454  -1.6430  -1.6252  -1.6158
    -1.5876  -1.5778  -1.5696  -1.5484  -1.5405  -1.5091  -1.5046  -1.4581
    -1.4550  -1.4348  -1.4110  -1.4104  -1.4099  -1.4044  -1.4019  -1.3854
    -1.3844  -1.3837  -1.3827  -1.3814  -1.3807  -1.3799  -1.3779  -1.3583
    -1.3511  -1.3418  -1.3185  -1.3180  -1.3168  -1.2951  -1.2946  -1.2900
    -1.2888  -1.2853  -1.2671  -1.2494  -1.2411  -1.2240  -1.2228  -1.2055
    -1.2026  -1.1905  -1.1817  -1.1630  -1.1610  -1.1552  -1.1470  -1.1156
    -1.1124  -1.1049  -1.1034  -1.1022  -1.0933  -1.0768  -1.0759  -1.0631
    -1.0550  -1.0529  -1.0440  -1.0421  -1.0410  -1.0341  -1.0308  -1.0196
    -1.0189  -1.0121  -1.0116  -1.0046  -1.0017  -0.9874  -0.9856  -0.9433
    -0.9411  -0.9409  -0.9391  -0.9340  -0.9288  -0.9079  -0.8978  -0.8930
    -0.8752  -0.8706  -0.8660  -0.8619  -0.8578  -0.8486  -0.8418  -0.8136
    -0.8067  -0.8015  -0.7990  -0.7812  -0.7804  -0.7657  -0.7422  -0.7338
    -0.7163  -0.7145  -0.6783  -0.6777  -0.6758  -0.6734  -0.6688  -0.6676
    -0.6672  -0.6660  -0.6613  -0.6601  -0.6287  -0.6268  -0.6266  -0.6243
    -0.6237  -0.6122  -0.6096  -0.5998  -0.5818  -0.3226  -0.3111  -0.2697
    -0.2508  -0.2351  -0.1774  -0.0254  -0.0242   0.0125   0.2891   0.2955
     0.6283   0.6404   0.6744   0.6760   0.7233   0.7278   0.8818   0.8940
     1.0127   1.0150   1.1317   1.6234   1.6610   1.6709   1.7066   1.7070
     1.8344   1.8557   1.8987   1.9072   2.0811   2.0846   2.3664   2.3905
     2.4017   2.4162   2.8397   2.8579   2.8732   2.8774   2.8902   2.8924
     2.9563   2.9568   3.1042   3.2325   3.2415   3.4224   3.4301   3.5304
     3.6006   3.6064   3.8990   3.9071   3.9531   3.9619   3.9657   4.0949
     4.1056   4.1103   4.1376   4.4040   4.4050   4.4358   4.4458   4.5521
     4.5611   4.6116   4.6332   4.8844   5.3871   5.5003   5.5087   5.5814
     5.6326   5.7109   5.7156   5.7751   5.7889   5.8007   5.8010   5.8613
     5.9123   5.9398   6.1313   6.1539   6.1942   6.2030   6.2050   6.2106
     6.2159   6.2240   6.3088   6.3776   6.3862   6.4815   6.5112   6.5525

     the Fermi energy is     0.9581 ev

!    total energy              =   -7379.98359354 Ry
     Harris-Foulkes estimate   =   -7379.98359355 Ry
     estimated scf accuracy    <          3.0E-09 Ry

     The total energy is the sum of the following terms:

     one-electron contribution =  -48754.44958623 Ry
     hartree contribution      =   24926.86299650 Ry
     xc contribution           =   -3556.25133895 Ry
     ewald contribution        =   20003.85318274 Ry
     smearing contrib. (-TS)   =       0.00115241 Ry

     convergence has been achieved in  27 iterations

     negative rho (up, down):  1.970E+00 0.000E+00

     Forces acting on atoms (Ry/au):

     atom    1 type  3   force =     0.00163129    0.00796072    0.00281407
     atom    2 type  2   force =    -0.00854832   -0.00656378   -0.00135869
     atom    3 type  2   force =     0.00417740   -0.00261946   -0.00001885
     atom    4 type  1   force =    -0.00019772   -0.00023570    0.01838999
     atom    5 type  1   force =    -0.00001146   -0.00019358    0.01832438
     atom    6 type  1   force =    -0.00004771   -0.00020158    0.01827291
     atom    7 type  1   force =     0.00002270   -0.00001932    0.01810144
     atom    8 type  1   force =     0.00000086   -0.00006477    0.01807251
     atom    9 type  1   force =     0.00021451    0.00005151    0.01820605
     atom   10 type  1   force =    -0.00023095   -0.00000785    0.01841230
     atom   11 type  1   force =    -0.00006185   -0.00001105    0.01802054
     atom   12 type  1   force =     0.00004792    0.00001147    0.01803558
     atom   13 type  1   force =     0.00000300   -0.00002978    0.01806378
     atom   14 type  1   force =     0.00002260    0.00004316    0.01798836
     atom   15 type  1   force =     0.00021489   -0.00008847    0.01824795
     atom   16 type  1   force =    -0.00022056    0.00007922    0.01828211
     atom   17 type  1   force =     0.00003231    0.00000708    0.01800093
     atom   18 type  1   force =    -0.00007878   -0.00000363    0.01802678
     atom   19 type  1   force =    -0.00000462    0.00023589    0.01819850
     atom   20 type  1   force =    -0.00000793    0.00022280    0.01840754
     atom   21 type  1   force =     0.00030968    0.00021269    0.01846740
     atom   22 type  1   force =    -0.00017073   -0.00045916   -0.00242280
     atom   23 type  1   force =     0.00000173   -0.00012352   -0.00238137
     atom   24 type  1   force =     0.00040611   -0.00038199   -0.00241422
     atom   25 type  1   force =    -0.00050781   -0.00015035   -0.00253584
     atom   26 type  1   force =     0.00000825    0.00004184   -0.00245794
     atom   27 type  1   force =     0.00010253    0.00003853   -0.00254349
     atom   28 type  1   force =     0.00030274    0.00000699   -0.00238376
     atom   29 type  1   force =     0.00005099    0.00009556   -0.00270608
     atom   30 type  1   force =     0.00022159   -0.00002308   -0.00244213
     atom   31 type  1   force =    -0.00042212    0.00011583   -0.00254122
     atom   32 type  1   force =     0.00008635    0.00004890   -0.00258460
     atom   33 type  1   force =    -0.00001584    0.00001527   -0.00261379
     atom   34 type  1   force =    -0.00003552    0.00005960   -0.00246525
     atom   35 type  1   force =    -0.00002786   -0.00020329   -0.00245189
     atom   36 type  1   force =     0.00032473    0.00003656   -0.00252146
     atom   37 type  1   force =    -0.00034661    0.00041311   -0.00237417
     atom   38 type  1   force =    -0.00010197    0.00020311   -0.00253411
     atom   39 type  1   force =     0.00016373    0.00028819   -0.00254323
     atom   40 type  1   force =    -0.00025262   -0.00032796    0.00139758
     atom   41 type  1   force =    -0.00006472   -0.00062026    0.00113159
     atom   42 type  1   force =     0.00000191   -0.00047202    0.00130693
     atom   43 type  1   force =    -0.00025679   -0.00000938    0.00150086
     atom   44 type  1   force =     0.00055574    0.00024647    0.00182390
     atom   45 type  1   force =    -0.00014589    0.00019958    0.00161081
     atom   46 type  1   force =    -0.00027886   -0.00000122    0.00150164
     atom   47 type  1   force =     0.00007199    0.00005986    0.00149104
     atom   48 type  1   force =    -0.00006274   -0.00001678    0.00155154
     atom   49 type  1   force =    -0.00032738   -0.00010290    0.00117588
     atom   50 type  1   force =     0.00019452    0.00038796    0.00151293
     atom   51 type  1   force =     0.00040118    0.00004521    0.00131314
     atom   52 type  1   force =    -0.00013470   -0.00001630    0.00147340
     atom   53 type  1   force =     0.00014796   -0.00030109    0.00190905
     atom   54 type  1   force =     0.00028013   -0.00008969    0.00149645
     atom   55 type  1   force =    -0.00002748    0.00039648    0.00143493
     atom   56 type  1   force =    -0.00004509    0.00036582    0.00150763
     atom   57 type  1   force =     0.00030100    0.00037063    0.00147484
     atom   58 type  1   force =     0.00003560   -0.00014750   -0.01717276
     atom   59 type  1   force =     0.00003326   -0.00000579   -0.01689989
     atom   60 type  1   force =     0.00022068   -0.00021056   -0.01727816
     atom   61 type  1   force =    -0.00017282   -0.00004135   -0.01715513
     atom   62 type  1   force =     0.00001800    0.00003752   -0.01606462
     atom   63 type  1   force =     0.00060767   -0.00091716   -0.01748469
     atom   64 type  1   force =     0.00011312   -0.00006800   -0.01687385
     atom   65 type  1   force =     0.00120839    0.00012907   -0.01817457
     atom   66 type  1   force =     0.00027702   -0.00008163   -0.01739590
     atom   67 type  1   force =    -0.00018046    0.00000942   -0.01721283
     atom   68 type  1   force =    -0.00073767    0.00040622   -0.01756179
     atom   69 type  1   force =     0.00088743    0.00086841   -0.01804170
     atom   70 type  1   force =    -0.00006543    0.00007837   -0.01707041
     atom   71 type  1   force =     0.00001735    0.00017785   -0.01736656
     atom   72 type  1   force =     0.00033128    0.00015213   -0.01715588
     atom   73 type  1   force =    -0.00027184    0.00016507   -0.01737123
     atom   74 type  1   force =    -0.00002508    0.00026734   -0.01717638
     atom   75 type  1   force =     0.00003777    0.00025849   -0.01719598

     Total force =     0.014706     Total SCF correction =     0.000003

     BFGS Geometry Optimization

     number of scf cycles    =   1
     number of bfgs steps    =   0

     energy   new            =   -7379.9835935444 Ry

     new trust radius        =       0.0108629223 bohr
     new conv_thr            =       0.0000000100 Ry


ATOMIC_POSITIONS (angstrom)
O        6.381468054   4.257948524   9.375533826
H        5.775112329   3.669510585   8.873282550
H        6.965563197   3.641423399   9.859144827
Au       0.000000000   0.000000000   0.000000000    0   0   0
Au       4.253738000   0.000000000   0.000000000    0   0   0
Au       8.507476000   0.000000000   0.000000000    0   0   0
Au       2.126869000   2.126869000   0.000000000    0   0   0
Au       6.380607000   2.126869000   0.000000000    0   0   0
Au      10.634344000   2.126869000   0.000000000    0   0   0
Au       0.000000000   4.253738000   0.000000000    0   0   0
Au       4.253738000   4.253738000   0.000000000    0   0   0
Au       8.507476000   4.253738000   0.000000000    0   0   0
Au       2.126869000   6.380607000   0.000000000    0   0   0
Au       6.380607000   6.380607000   0.000000000    0   0   0
Au      10.634344000   6.380607000   0.000000000    0   0   0
Au       0.000000000   8.507476000   0.000000000    0   0   0
Au       4.253738000   8.507476000   0.000000000    0   0   0
Au       8.507476000   8.507476000   0.000000000    0   0   0
Au       2.126869000  10.634344000   0.000000000    0   0   0
Au       6.380607000  10.634344000   0.000000000    0   0   0
Au      10.634344000  10.634344000   0.000000000    0   0   0
Au       2.126869000   0.000000000   2.126869000    0   0   0
Au       6.380607000   0.000000000   2.126869000    0   0   0
Au      10.634344000   0.000000000   2.126869000    0   0   0
Au       0.000000000   2.126869000   2.126869000    0   0   0
Au       4.253738000   2.126869000   2.126869000    0   0   0
Au       8.507476000   2.126869000   2.126869000    0   0   0
Au       2.126869000   4.253738000   2.126869000    0   0   0
Au       6.380607000   4.253738000   2.126869000    0   0   0
Au      10.634344000   4.253738000   2.126869000    0   0   0
Au       0.000000000   6.380607000   2.126869000    0   0   0
Au       4.253738000   6.380607000   2.126869000    0   0   0
Au       8.507476000   6.380607000   2.126869000    0   0   0
Au       2.126869000   8.507476000   2.126869000    0   0   0
Au       6.380607000   8.507476000   2.126869000    0   0   0
Au      10.634344000   8.507476000   2.126869000    0   0   0
Au       0.000000000  10.634344000   2.126869000    0   0   0
Au       4.253738000  10.634344000   2.126869000    0   0   0
Au       8.507476000  10.634344000   2.126869000    0   0   0
Au      -0.000231899  -0.000231899   4.257900259    0   0   0
Au       4.253734608  -0.000230451   4.257893418    0   0   0
Au       8.507492151  -0.000233495   4.257904766    0   0   0
Au      -0.000230451   4.253734608   4.257893418    0   0   0
Au       4.253734872   4.253734872   4.257887922    0   0   0
Au       8.507489223   4.253735714   4.257899972    0   0   0
Au      -0.000233495   8.507492151   4.257904766    0   0   0
Au       4.253735714   8.507489223   4.257899972    0   0   0
Au       8.507490970   8.507490970   4.257910325    0   0   0
Au       2.126854284   2.126854284   4.257906940    0   0   0
Au       6.380600017   2.126855061   4.257899048    0   0   0
Au      10.634586601   2.126852368   4.257903711    0   0   0
Au       2.126855061   6.380600017   4.257899048    0   0   0
Au       6.380601302   6.380601302   4.257890644    0   0   0
Au      10.634584097   6.380601789   4.257895413    0   0   0
Au       2.126852368  10.634586601   4.257903711    0   0   0
Au       6.380601789  10.634584097   4.257895413    0   0   0
Au      10.634585069  10.634585069   4.257900809    0   0   0
Au       2.126863116  -0.000141616   6.373929777    0   0   0
Au       6.380603693  -0.000142418   6.373934377    0   0   0
Au      10.634494877  -0.000142245   6.373820138    0   0   0
Au      -0.000141616   2.126863116   6.373929777    0   0   0
Au       4.253733333   2.126865567   6.374044528    0   0   0
Au       8.507479448   2.126865512   6.374047422    0   0   0
Au       2.126865567   4.253733333   6.374044528    0   0   0
Au       6.380604810   4.253735890   6.374044687    0   0   0
Au      10.634492342   4.253734512   6.373939184    0   0   0
Au      -0.000142418   6.380603693   6.373934377    0   0   0
Au       4.253735890   6.380604810   6.374044687    0   0   0
Au       8.507478446   6.380605875   6.374047284    0   0   0
Au       2.126865512   8.507479448   6.374047422    0   0   0
Au       6.380605875   8.507478446   6.374047284    0   0   0
Au      10.634491790   8.507480400   6.373938586    0   0   0
Au      -0.000142245  10.634494877   6.373820138    0   0   0
Au       4.253734512  10.634492342   6.373939184    0   0   0
Au       8.507480400  10.634491790   6.373938586    0   0   0



     Writing output data file 6510999.save
     Check: negative starting charge=   -1.945168
     NEW-OLD atomic charge density approx. for the potential
     Check: negative starting charge=   -1.945165

     negative rho (up, down):  1.971E+00 0.000E+00

     total cpu time spent up to now is     3046.8 secs

     per-process dynamical memory:   723.3 Mb

     Self-consistent Calculation

     iteration #  1     ecut=    50.00 Ry     beta=0.70
     Davidson diagonalization with overlap
     ethr =  1.00E-06,  avg # of iterations =  3.0

     Threshold (ethr) on eigenvalues was too large:
     Diagonalizing with lowered threshold

     Davidson diagonalization with overlap
     ethr =  1.43E-08,  avg # of iterations =  2.0

     negative rho (up, down):  1.970E+00 0.000E+00

     total cpu time spent up to now is     3223.5 secs

     total energy              =   -7379.98359370 Ry
     Harris-Foulkes estimate   =   -7379.98367429 Ry
     estimated scf accuracy    <       0.00011510 Ry

     iteration #  2     ecut=    50.00 Ry     beta=0.70
     Davidson diagonalization with overlap
     ethr =  1.44E-08,  avg # of iterations =  4.0

     negative rho (up, down):  1.970E+00 0.000E+00

     total cpu time spent up to now is     3327.0 secs

     total energy              =   -7379.98356654 Ry
     Harris-Foulkes estimate   =   -7379.98369448 Ry
     estimated scf accuracy    <       0.00031824 Ry

     iteration #  3     ecut=    50.00 Ry     beta=0.70
     Davidson diagonalization with overlap
     ethr =  1.44E-08,  avg # of iterations =  4.0

     negative rho (up, down):  1.970E+00 0.000E+00

     total cpu time spent up to now is     3436.6 secs

     total energy              =   -7379.98353964 Ry
     Harris-Foulkes estimate   =   -7379.98374878 Ry
     estimated scf accuracy    <       0.00186336 Ry

     iteration #  4     ecut=    50.00 Ry     beta=0.70
     Davidson diagonalization with overlap
     ethr =  1.44E-08,  avg # of iterations =  3.0

     negative rho (up, down):  1.970E+00 0.000E+00

     total cpu time spent up to now is     3533.8 secs

     total energy              =   -7379.98364080 Ry
     Harris-Foulkes estimate   =   -7379.98364605 Ry
     estimated scf accuracy    <       0.00001405 Ry

     iteration #  5     ecut=    50.00 Ry     beta=0.70
     Davidson diagonalization with overlap
     ethr =  1.76E-09,  avg # of iterations =  2.8

     negative rho (up, down):  1.970E+00 0.000E+00

     total cpu time spent up to now is     3639.3 secs

     total energy              =   -7379.98364096 Ry
     Harris-Foulkes estimate   =   -7379.98364873 Ry
     estimated scf accuracy    <       0.00004105 Ry

     iteration #  6     ecut=    50.00 Ry     beta=0.70
     Davidson diagonalization with overlap
     ethr =  1.76E-09,  avg # of iterations =  2.0

     negative rho (up, down):  1.970E+00 0.000E+00

     total cpu time spent up to now is     3729.5 secs

     total energy              =   -7379.98364405 Ry
     Harris-Foulkes estimate   =   -7379.98364569 Ry
     estimated scf accuracy    <       0.00000733 Ry

     iteration #  7     ecut=    50.00 Ry     beta=0.70
     Davidson diagonalization with overlap
     ethr =  9.16E-10,  avg # of iterations =  2.0

     negative rho (up, down):  1.970E+00 0.000E+00

     total cpu time spent up to now is     3816.9 secs

     total energy              =   -7379.98364481 Ry
     Harris-Foulkes estimate   =   -7379.98364506 Ry
     estimated scf accuracy    <       0.00000089 Ry

     iteration #  8     ecut=    50.00 Ry     beta=0.70
     Davidson diagonalization with overlap
     ethr =  1.11E-10,  avg # of iterations =  2.0

     negative rho (up, down):  1.970E+00 0.000E+00

     total cpu time spent up to now is     3907.3 secs

     total energy              =   -7379.98364493 Ry
     Harris-Foulkes estimate   =   -7379.98364501 Ry
     estimated scf accuracy    <       0.00000030 Ry

     iteration #  9     ecut=    50.00 Ry     beta=0.70
     Davidson diagonalization with overlap
     ethr =  3.77E-11,  avg # of iterations =  2.0

     negative rho (up, down):  1.970E+00 0.000E+00

     total cpu time spent up to now is     3996.1 secs

     total energy              =   -7379.98364496 Ry
     Harris-Foulkes estimate   =   -7379.98364500 Ry
     estimated scf accuracy    <       0.00000015 Ry

     iteration # 10     ecut=    50.00 Ry     beta=0.70
     Davidson diagonalization with overlap
     ethr =  1.87E-11,  avg # of iterations =  2.0

     negative rho (up, down):  1.970E+00 0.000E+00

     total cpu time spent up to now is     4084.3 secs

     total energy              =   -7379.98364498 Ry
     Harris-Foulkes estimate   =   -7379.98364498 Ry
     estimated scf accuracy    <       0.00000002 Ry

     iteration # 11     ecut=    50.00 Ry     beta=0.70
     Davidson diagonalization with overlap
     ethr =  2.32E-12,  avg # of iterations =  2.0

     negative rho (up, down):  1.970E+00 0.000E+00

     total cpu time spent up to now is     4177.6 secs

     End of self-consistent calculation

          k = 0.2500 0.2500 0.0833 (167653 PWs)   bands (ev):

   -19.4529  -7.2765  -6.8284  -6.2991  -6.2981  -5.8606  -5.4575  -5.3588
    -5.3582  -5.1369  -5.1365  -5.0408  -5.0395  -4.9065  -4.8986  -4.7892
    -4.7009  -4.6966  -4.6758  -4.6753  -4.4949  -4.4933  -4.4930  -4.4667
    -4.4625  -4.4617  -4.4576  -4.4054  -4.4045  -4.4020  -4.4016  -4.3380
    -4.3097  -4.3095  -4.2541  -4.2499  -4.2484  -4.2131  -4.2122  -4.1984
    -4.1936  -4.1751  -4.1749  -4.1389  -4.1056  -4.1054  -4.1028  -4.0995
    -4.0993  -4.0700  -4.0411  -4.0389  -4.0094  -4.0090  -4.0059  -4.0049
    -4.0034  -3.9970  -3.9669  -3.9650  -3.9053  -3.9046  -3.8732  -3.8480
    -3.8396  -3.8361  -3.8351  -3.8133  -3.8126  -3.8016  -3.7512  -3.7507
    -3.7453  -3.7448  -3.6623  -3.6595  -3.6437  -3.6372  -3.6028  -3.6026
    -3.5862  -3.5670  -3.5616  -3.5537  -3.5169  -3.5165  -3.5144  -3.5109
    -3.4901  -3.4893  -3.4095  -3.4088  -3.4067  -3.3925  -3.3783  -3.3739
    -3.3624  -3.3619  -3.3551  -3.3545  -3.3124  -3.3120  -3.2907  -3.2884
    -3.2539  -3.2517  -3.2271  -3.2056  -3.2050  -3.1594  -3.1588  -3.1262
    -3.0986  -3.0978  -3.0976  -3.0969  -3.0934  -3.0929  -3.0678  -3.0559
    -3.0186  -3.0181  -2.9975  -2.9732  -2.9711  -2.9699  -2.9642  -2.9634
    -2.9596  -2.9593  -2.9247  -2.9232  -2.9230  -2.9180  -2.9173  -2.9126
    -2.8570  -2.8530  -2.8483  -2.8471  -2.8259  -2.8251  -2.8204  -2.7309
    -2.7214  -2.7207  -2.7119  -2.7107  -2.7058  -2.7048  -2.7031  -2.6953
    -2.6944  -2.6852  -2.6767  -2.6760  -2.6733  -2.6688  -2.6592  -2.6544
    -2.6515  -2.6306  -2.6195  -2.6186  -2.6037  -2.6029  -2.5864  -2.5861
    -2.5771  -2.5768  -2.5562  -2.5445  -2.5441  -2.5405  -2.5385  -2.5060
    -2.5022  -2.5018  -2.4447  -2.4400  -2.4280  -2.4259  -2.4156  -2.4129
    -2.3890  -2.3874  -2.3831  -2.3724  -2.3705  -2.3613  -2.3589  -2.3445
    -2.3420  -2.3156  -2.3148  -2.3063  -2.3051  -2.2954  -2.2950  -2.2818
    -2.2660  -2.2460  -2.1765  -2.1744  -2.1546  -2.1538  -2.1460  -2.1425
    -2.0937  -2.0919  -2.0787  -2.0575  -2.0470  -2.0457  -2.0266  -2.0106
    -2.0082  -1.9994  -1.9951  -1.9642  -1.9585  -1.9556  -1.9466  -1.9453
    -1.9420  -1.9396  -1.9285  -1.9141  -1.9104  -1.9031  -1.9020  -1.9018
    -1.9013  -1.8999  -1.8863  -1.8717  -1.8664  -1.8640  -1.8585  -1.8498
    -1.8449  -1.8430  -1.8408  -1.8384  -1.8330  -1.8189  -1.7976  -1.7682
    -1.7434  -1.7343  -1.7156  -1.6889  -1.6884  -1.6880  -1.6777  -1.6749
    -1.6637  -1.6608  -1.6559  -1.6494  -1.6451  -1.6417  -1.6250  -1.6148
    -1.5877  -1.5775  -1.5698  -1.5483  -1.5407  -1.5097  -1.5040  -1.4583
    -1.4555  -1.4348  -1.4117  -1.4106  -1.4101  -1.4046  -1.4018  -1.3872
    -1.3839  -1.3835  -1.3831  -1.3815  -1.3812  -1.3798  -1.3780  -1.3584
    -1.3514  -1.3420  -1.3184  -1.3178  -1.3165  -1.2960  -1.2943  -1.2898
    -1.2892  -1.2861  -1.2676  -1.2490  -1.2420  -1.2241  -1.2226  -1.2056
    -1.2029  -1.1906  -1.1818  -1.1624  -1.1616  -1.1555  -1.1473  -1.1160
    -1.1141  -1.1044  -1.1034  -1.1025  -1.0937  -1.0771  -1.0761  -1.0631
    -1.0550  -1.0532  -1.0438  -1.0421  -1.0417  -1.0338  -1.0306  -1.0205
    -1.0190  -1.0121  -1.0120  -1.0051  -1.0015  -0.9873  -0.9853  -0.9433
    -0.9422  -0.9411  -0.9399  -0.9341  -0.9287  -0.9068  -0.8982  -0.8931
    -0.8746  -0.8721  -0.8661  -0.8623  -0.8580  -0.8488  -0.8424  -0.8134
    -0.8072  -0.8016  -0.7994  -0.7814  -0.7808  -0.7659  -0.7421  -0.7338
    -0.7159  -0.7154  -0.6788  -0.6782  -0.6757  -0.6737  -0.6691  -0.6678
    -0.6670  -0.6666  -0.6616  -0.6603  -0.6278  -0.6275  -0.6263  -0.6249
    -0.6238  -0.6129  -0.6097  -0.6010  -0.5819  -0.3229  -0.3113  -0.2679
    -0.2539  -0.2352  -0.1781  -0.0256  -0.0248   0.0131   0.2899   0.2941
     0.6305   0.6383   0.6744   0.6750   0.7245   0.7255   0.8835   0.8915
     1.0126   1.0150   1.1312   1.6236   1.6629   1.6707   1.7061   1.7072
     1.8405   1.8481   1.8994   1.9046   2.0821   2.0832   2.3671   2.3933
     2.3989   2.4162   2.8474   2.8542   2.8731   2.8740   2.8908   2.8914
     2.9552   2.9571   3.1051   3.2323   3.2347   3.4225   3.4237   3.5310
     3.6026   3.6050   3.9009   3.9029   3.9597   3.9619   3.9636   4.0902
     4.1083   4.1141   4.1313   4.4020   4.4053   4.4407   4.4419   4.5550
     4.5585   4.6204   4.6298   4.8844   5.3777   5.4989   5.5099   5.5829
     5.6421   5.7104   5.7126   5.7831   5.7836   5.7973   5.8015   5.8669
     5.9082   5.9162   6.0694   6.1719   6.1986   6.2062   6.2122   6.2145
     6.2159   6.2275   6.3203   6.3680   6.3887   6.4047   6.4869   6.5232

          k = 0.2500 0.2500-0.2500 (167588 PWs)   bands (ev):

   -19.4529  -7.2765  -6.8284  -6.2991  -6.2981  -5.8606  -5.4575  -5.3588
    -5.3582  -5.1369  -5.1365  -5.0408  -5.0395  -4.9065  -4.8986  -4.7892
    -4.7009  -4.6966  -4.6758  -4.6753  -4.4949  -4.4933  -4.4930  -4.4667
    -4.4625  -4.4617  -4.4576  -4.4054  -4.4045  -4.4020  -4.4016  -4.3380
    -4.3097  -4.3095  -4.2541  -4.2499  -4.2484  -4.2131  -4.2122  -4.1985
    -4.1936  -4.1751  -4.1749  -4.1389  -4.1056  -4.1054  -4.1028  -4.0995
    -4.0993  -4.0700  -4.0411  -4.0389  -4.0094  -4.0090  -4.0059  -4.0049
    -4.0034  -3.9970  -3.9669  -3.9650  -3.9053  -3.9046  -3.8732  -3.8479
    -3.8396  -3.8361  -3.8351  -3.8133  -3.8126  -3.8016  -3.7512  -3.7507
    -3.7453  -3.7448  -3.6623  -3.6595  -3.6437  -3.6372  -3.6028  -3.6026
    -3.5862  -3.5670  -3.5616  -3.5537  -3.5169  -3.5164  -3.5144  -3.5109
    -3.4901  -3.4893  -3.4095  -3.4088  -3.4067  -3.3925  -3.3783  -3.3739
    -3.3624  -3.3619  -3.3551  -3.3545  -3.3124  -3.3119  -3.2907  -3.2884
    -3.2539  -3.2517  -3.2271  -3.2056  -3.2050  -3.1594  -3.1588  -3.1262
    -3.0986  -3.0978  -3.0976  -3.0968  -3.0934  -3.0929  -3.0678  -3.0559
    -3.0186  -3.0181  -2.9975  -2.9732  -2.9711  -2.9699  -2.9642  -2.9634
    -2.9596  -2.9593  -2.9247  -2.9232  -2.9230  -2.9180  -2.9173  -2.9126
    -2.8570  -2.8530  -2.8483  -2.8471  -2.8259  -2.8251  -2.8204  -2.7309
    -2.7214  -2.7207  -2.7119  -2.7107  -2.7058  -2.7048  -2.7031  -2.6953
    -2.6944  -2.6852  -2.6767  -2.6760  -2.6733  -2.6688  -2.6592  -2.6544
    -2.6515  -2.6306  -2.6195  -2.6186  -2.6037  -2.6029  -2.5864  -2.5861
    -2.5771  -2.5768  -2.5562  -2.5445  -2.5441  -2.5405  -2.5385  -2.5060
    -2.5022  -2.5018  -2.4447  -2.4400  -2.4280  -2.4259  -2.4156  -2.4129
    -2.3890  -2.3874  -2.3831  -2.3724  -2.3705  -2.3613  -2.3589  -2.3445
    -2.3420  -2.3156  -2.3148  -2.3063  -2.3051  -2.2954  -2.2950  -2.2818
    -2.2660  -2.2460  -2.1765  -2.1744  -2.1546  -2.1538  -2.1460  -2.1425
    -2.0937  -2.0919  -2.0787  -2.0575  -2.0470  -2.0457  -2.0266  -2.0106
    -2.0082  -1.9994  -1.9951  -1.9642  -1.9585  -1.9556  -1.9466  -1.9452
    -1.9420  -1.9396  -1.9285  -1.9141  -1.9104  -1.9031  -1.9020  -1.9018
    -1.9013  -1.8999  -1.8863  -1.8717  -1.8664  -1.8640  -1.8585  -1.8498
    -1.8449  -1.8430  -1.8408  -1.8384  -1.8330  -1.8189  -1.7976  -1.7682
    -1.7434  -1.7343  -1.7156  -1.6889  -1.6884  -1.6880  -1.6777  -1.6749
    -1.6637  -1.6608  -1.6559  -1.6494  -1.6450  -1.6417  -1.6250  -1.6148
    -1.5877  -1.5775  -1.5698  -1.5483  -1.5407  -1.5097  -1.5040  -1.4583
    -1.4555  -1.4348  -1.4117  -1.4106  -1.4101  -1.4046  -1.4018  -1.3872
    -1.3839  -1.3835  -1.3831  -1.3815  -1.3812  -1.3798  -1.3780  -1.3584
    -1.3514  -1.3420  -1.3185  -1.3178  -1.3165  -1.2960  -1.2943  -1.2898
    -1.2892  -1.2861  -1.2676  -1.2490  -1.2420  -1.2241  -1.2226  -1.2056
    -1.2029  -1.1906  -1.1818  -1.1624  -1.1616  -1.1555  -1.1473  -1.1159
    -1.1141  -1.1044  -1.1034  -1.1025  -1.0937  -1.0771  -1.0761  -1.0631
    -1.0550  -1.0532  -1.0438  -1.0421  -1.0417  -1.0338  -1.0306  -1.0205
    -1.0190  -1.0121  -1.0120  -1.0051  -1.0015  -0.9873  -0.9853  -0.9433
    -0.9422  -0.9411  -0.9399  -0.9341  -0.9287  -0.9068  -0.8982  -0.8931
    -0.8746  -0.8721  -0.8661  -0.8622  -0.8580  -0.8488  -0.8424  -0.8134
    -0.8072  -0.8016  -0.7994  -0.7814  -0.7808  -0.7659  -0.7421  -0.7338
    -0.7159  -0.7154  -0.6788  -0.6782  -0.6757  -0.6737  -0.6691  -0.6678
    -0.6670  -0.6666  -0.6616  -0.6603  -0.6278  -0.6275  -0.6263  -0.6249
    -0.6238  -0.6129  -0.6097  -0.6010  -0.5819  -0.3229  -0.3113  -0.2679
    -0.2539  -0.2352  -0.1781  -0.0256  -0.0248   0.0131   0.2899   0.2941
     0.6304   0.6383   0.6744   0.6751   0.7245   0.7256   0.8835   0.8915
     1.0126   1.0150   1.1312   1.6236   1.6629   1.6707   1.7061   1.7072
     1.8405   1.8481   1.8994   1.9046   2.0821   2.0832   2.3671   2.3933
     2.3989   2.4162   2.8474   2.8542   2.8731   2.8740   2.8908   2.8914
     2.9552   2.9571   3.1052   3.2324   3.2347   3.4225   3.4237   3.5310
     3.6026   3.6051   3.9009   3.9029   3.9597   3.9619   3.9636   4.0902
     4.1083   4.1142   4.1314   4.4020   4.4053   4.4407   4.4419   4.5550
     4.5585   4.6204   4.6298   4.8845   5.3735   5.4988   5.5095   5.5830
     5.6325   5.7103   5.7124   5.7816   5.7832   5.7974   5.8014   5.8554
     5.9102   5.9417   6.1318   6.1545   6.1830   6.1992   6.2115   6.2133
     6.2158   6.2270   6.3121   6.3733   6.3927   6.4734   6.5182   6.5344

          k =-0.2500-0.2500 0.0833 (167653 PWs)   bands (ev):

   -19.4529  -7.2765  -6.8284  -6.2991  -6.2981  -5.8606  -5.4575  -5.3588
    -5.3582  -5.1369  -5.1365  -5.0408  -5.0395  -4.9065  -4.8986  -4.7892
    -4.7009  -4.6966  -4.6758  -4.6753  -4.4949  -4.4933  -4.4930  -4.4667
    -4.4625  -4.4617  -4.4576  -4.4054  -4.4045  -4.4020  -4.4016  -4.3380
    -4.3097  -4.3095  -4.2541  -4.2499  -4.2484  -4.2131  -4.2122  -4.1984
    -4.1936  -4.1751  -4.1749  -4.1389  -4.1056  -4.1054  -4.1028  -4.0995
    -4.0993  -4.0700  -4.0411  -4.0389  -4.0094  -4.0090  -4.0059  -4.0049
    -4.0034  -3.9970  -3.9669  -3.9650  -3.9053  -3.9046  -3.8732  -3.8480
    -3.8396  -3.8361  -3.8351  -3.8133  -3.8126  -3.8016  -3.7512  -3.7507
    -3.7453  -3.7448  -3.6623  -3.6595  -3.6437  -3.6372  -3.6028  -3.6026
    -3.5862  -3.5670  -3.5616  -3.5537  -3.5169  -3.5165  -3.5144  -3.5109
    -3.4901  -3.4893  -3.4095  -3.4088  -3.4067  -3.3925  -3.3783  -3.3739
    -3.3624  -3.3619  -3.3551  -3.3545  -3.3124  -3.3120  -3.2907  -3.2884
    -3.2539  -3.2517  -3.2271  -3.2056  -3.2050  -3.1594  -3.1588  -3.1262
    -3.0986  -3.0978  -3.0976  -3.0969  -3.0934  -3.0929  -3.0678  -3.0559
    -3.0186  -3.0181  -2.9975  -2.9732  -2.9711  -2.9699  -2.9642  -2.9634
    -2.9596  -2.9593  -2.9247  -2.9232  -2.9230  -2.9180  -2.9173  -2.9126
    -2.8570  -2.8530  -2.8483  -2.8471  -2.8259  -2.8251  -2.8204  -2.7309
    -2.7214  -2.7207  -2.7119  -2.7107  -2.7058  -2.7048  -2.7031  -2.6953
    -2.6944  -2.6852  -2.6767  -2.6760  -2.6733  -2.6688  -2.6592  -2.6544
    -2.6515  -2.6306  -2.6195  -2.6186  -2.6037  -2.6029  -2.5864  -2.5861
    -2.5771  -2.5768  -2.5562  -2.5445  -2.5441  -2.5405  -2.5385  -2.5060
    -2.5022  -2.5018  -2.4447  -2.4400  -2.4280  -2.4259  -2.4156  -2.4129
    -2.3890  -2.3874  -2.3831  -2.3724  -2.3705  -2.3613  -2.3589  -2.3445
    -2.3420  -2.3156  -2.3148  -2.3063  -2.3051  -2.2954  -2.2950  -2.2818
    -2.2660  -2.2460  -2.1765  -2.1744  -2.1546  -2.1538  -2.1460  -2.1425
    -2.0937  -2.0919  -2.0787  -2.0575  -2.0470  -2.0457  -2.0266  -2.0106
    -2.0082  -1.9994  -1.9951  -1.9642  -1.9585  -1.9556  -1.9466  -1.9453
    -1.9420  -1.9396  -1.9285  -1.9141  -1.9104  -1.9031  -1.9020  -1.9018
    -1.9013  -1.8999  -1.8863  -1.8717  -1.8664  -1.8640  -1.8585  -1.8498
    -1.8449  -1.8430  -1.8408  -1.8384  -1.8330  -1.8189  -1.7976  -1.7682
    -1.7434  -1.7343  -1.7156  -1.6889  -1.6884  -1.6880  -1.6777  -1.6749
    -1.6637  -1.6608  -1.6559  -1.6494  -1.6451  -1.6417  -1.6250  -1.6148
    -1.5877  -1.5775  -1.5698  -1.5483  -1.5407  -1.5097  -1.5040  -1.4583
    -1.4555  -1.4348  -1.4117  -1.4106  -1.4101  -1.4046  -1.4018  -1.3872
    -1.3839  -1.3835  -1.3831  -1.3815  -1.3812  -1.3798  -1.3780  -1.3584
    -1.3514  -1.3420  -1.3184  -1.3178  -1.3165  -1.2960  -1.2943  -1.2898
    -1.2892  -1.2861  -1.2676  -1.2490  -1.2420  -1.2241  -1.2226  -1.2056
    -1.2029  -1.1906  -1.1818  -1.1624  -1.1616  -1.1555  -1.1473  -1.1160
    -1.1141  -1.1044  -1.1034  -1.1025  -1.0937  -1.0771  -1.0761  -1.0631
    -1.0550  -1.0532  -1.0438  -1.0421  -1.0417  -1.0338  -1.0306  -1.0205
    -1.0190  -1.0121  -1.0120  -1.0051  -1.0015  -0.9873  -0.9853  -0.9433
    -0.9422  -0.9411  -0.9399  -0.9341  -0.9287  -0.9068  -0.8982  -0.8931
    -0.8746  -0.8721  -0.8661  -0.8623  -0.8580  -0.8488  -0.8424  -0.8134
[...]
    -1.2381  -1.2350  -1.2170  -1.1985  -1.1917  -1.1738  -1.1724  -1.1562
    -1.1516  -1.1396  -1.1290  -1.1117  -1.1103  -1.1047  -1.0969  -1.0654
    -1.0630  -1.0537  -1.0524  -1.0509  -1.0392  -1.0255  -1.0244  -1.0123
    -1.0039  -1.0012  -0.9930  -0.9912  -0.9898  -0.9820  -0.9795  -0.9686
    -0.9676  -0.9605  -0.9598  -0.9544  -0.9508  -0.9351  -0.9313  -0.8920
    -0.8912  -0.8894  -0.8890  -0.8818  -0.8733  -0.8566  -0.8437  -0.8418
    -0.8243  -0.8197  -0.8145  -0.8094  -0.8062  -0.7968  -0.7832  -0.7634
    -0.7510  -0.7499  -0.7394  -0.7297  -0.7268  -0.7141  -0.6910  -0.6824
    -0.6645  -0.6629  -0.6272  -0.6268  -0.6256  -0.6211  -0.6164  -0.6156
    -0.6149  -0.6133  -0.6087  -0.6083  -0.5781  -0.5760  -0.5753  -0.5735
    -0.5730  -0.5607  -0.5582  -0.5306  -0.5187  -0.2727  -0.2586  -0.2207
    -0.1904  -0.1760  -0.1266   0.0257   0.0275   0.0718   0.3395   0.3524
     0.6768   0.6998   0.7257   0.7281   0.7741   0.7809   0.9298   0.9567
     1.0643   1.0672   1.1840   1.6755   1.7112   1.7228   1.7581   1.7588
     1.8779   1.9039   1.9473   1.9712   2.1316   2.1393   2.4145   2.4392
     2.4609   2.4681   2.8864   2.9081   2.9239   2.9319   2.9416   2.9459
     3.0078   3.0084   3.1357   3.2759   3.2971   3.4736   3.4812   3.5832
     3.6499   3.6661   3.9440   3.9573   4.0096   4.0133   4.0218   4.1159
     4.1558   4.1580   4.1736   4.4551   4.4567   4.4872   4.4927   4.6032
     4.6081   4.6601   4.7008   4.8933   5.2939   5.5411   5.5559   5.6060
     5.6759   5.7574   5.7724   5.8237   5.8360   5.8497   5.8507   5.8643
     5.9403   5.9597   6.0564   6.1381   6.2395   6.2452   6.2552   6.2602
     6.2679   6.2724   6.3177   6.3522   6.3931   6.4201   6.4940   6.5472

          k =-0.2500 0.2500 0.2500 (167588 PWs)   bands (ev):

   -20.1376  -7.8916  -6.7774  -6.2480  -6.2462  -5.8089  -5.4085  -5.3076
    -5.3061  -5.0850  -5.0845  -4.9927  -4.9896  -4.8565  -4.8463  -4.7376
    -4.6489  -4.6453  -4.6262  -4.6232  -4.4435  -4.4419  -4.4409  -4.4234
    -4.4107  -4.4102  -4.4050  -4.3684  -4.3544  -4.3506  -4.3489  -4.2859
    -4.2838  -4.2573  -4.2436  -4.2031  -4.1968  -4.1948  -4.1615  -4.1594
    -4.1460  -4.1412  -4.1227  -4.1207  -4.0873  -4.0537  -4.0526  -4.0504
    -4.0479  -4.0456  -4.0184  -3.9885  -3.9858  -3.9577  -3.9559  -3.9532
    -3.9527  -3.9501  -3.9444  -3.9157  -3.9128  -3.8543  -3.8517  -3.8211
    -3.7962  -3.7867  -3.7838  -3.7829  -3.7610  -3.7602  -3.7496  -3.6993
    -3.6981  -3.6936  -3.6920  -3.6097  -3.6075  -3.5868  -3.5848  -3.5527
    -3.5505  -3.5338  -3.5108  -3.5092  -3.4659  -3.4649  -3.4632  -3.4625
    -3.4390  -3.4373  -3.3603  -3.3570  -3.3558  -3.3409  -3.3280  -3.3237
    -3.3105  -3.3097  -3.3046  -3.3033  -3.2634  -3.2601  -3.2398  -3.2379
    -3.2029  -3.2006  -3.1756  -3.1552  -3.1532  -3.1077  -3.1070  -3.0775
    -3.0521  -3.0468  -3.0453  -3.0449  -3.0418  -3.0407  -3.0174  -3.0042
    -2.9745  -2.9663  -2.9532  -2.9299  -2.9201  -2.9184  -2.9131  -2.9121
    -2.9083  -2.9072  -2.8745  -2.8726  -2.8712  -2.8690  -2.8656  -2.8606
    -2.8146  -2.8041  -2.8007  -2.7957  -2.7750  -2.7740  -2.7715  -2.7490
    -2.6780  -2.6696  -2.6684  -2.6604  -2.6588  -2.6528  -2.6524  -2.6477
    -2.6423  -2.6406  -2.6324  -2.6244  -2.6218  -2.6165  -2.6083  -2.6039
    -2.5995  -2.5940  -2.5745  -2.5678  -2.5583  -2.5511  -2.5420  -2.5346
    -2.5327  -2.5254  -2.5228  -2.5038  -2.4929  -2.4922  -2.4873  -2.4746
    -2.4507  -2.4499  -2.4454  -2.3915  -2.3876  -2.3743  -2.3701  -2.3637
    -2.3486  -2.3360  -2.3356  -2.3309  -2.3206  -2.3185  -2.3090  -2.3043
    -2.2921  -2.2836  -2.2639  -2.2625  -2.2546  -2.2515  -2.2439  -2.2433
    -2.2190  -2.2075  -2.1793  -2.1250  -2.1218  -2.1025  -2.1018  -2.0915
    -2.0850  -2.0421  -2.0396  -2.0278  -2.0058  -1.9952  -1.9938  -1.9749
    -1.9570  -1.9559  -1.9434  -1.9306  -1.9108  -1.9073  -1.9042  -1.8943
    -1.8923  -1.8892  -1.8879  -1.8725  -1.8582  -1.8519  -1.8510  -1.8508
    -1.8500  -1.8485  -1.8420  -1.8344  -1.8148  -1.8133  -1.8105  -1.8062
    -1.7935  -1.7921  -1.7892  -1.7880  -1.7818  -1.7795  -1.7468  -1.7365
    -1.6981  -1.6841  -1.6776  -1.6377  -1.6368  -1.6362  -1.6275  -1.6250
    -1.6141  -1.6115  -1.6055  -1.6013  -1.5952  -1.5938  -1.5740  -1.5690
    -1.5366  -1.5298  -1.5175  -1.4977  -1.4923  -1.4584  -1.4549  -1.4069
    -1.4052  -1.3839  -1.3608  -1.3591  -1.3584  -1.3540  -1.3517  -1.3357
    -1.3346  -1.3331  -1.3321  -1.3307  -1.3305  -1.3290  -1.3270  -1.3082
    -1.3001  -1.2923  -1.2678  -1.2666  -1.2663  -1.2441  -1.2430  -1.2393
    -1.2381  -1.2349  -1.2170  -1.1985  -1.1917  -1.1738  -1.1724  -1.1562
    -1.1516  -1.1396  -1.1290  -1.1118  -1.1103  -1.1047  -1.0969  -1.0654
    -1.0630  -1.0537  -1.0524  -1.0509  -1.0392  -1.0255  -1.0244  -1.0123
    -1.0039  -1.0012  -0.9930  -0.9912  -0.9898  -0.9820  -0.9795  -0.9686
    -0.9676  -0.9605  -0.9598  -0.9544  -0.9508  -0.9351  -0.9313  -0.8920
    -0.8912  -0.8894  -0.8889  -0.8818  -0.8733  -0.8566  -0.8437  -0.8418
    -0.8243  -0.8197  -0.8145  -0.8094  -0.8062  -0.7968  -0.7832  -0.7634
    -0.7510  -0.7499  -0.7394  -0.7297  -0.7268  -0.7141  -0.6910  -0.6824
    -0.6645  -0.6628  -0.6272  -0.6268  -0.6256  -0.6211  -0.6164  -0.6156
    -0.6149  -0.6133  -0.6087  -0.6083  -0.5781  -0.5760  -0.5753  -0.5735
    -0.5730  -0.5607  -0.5582  -0.5306  -0.5187  -0.2727  -0.2586  -0.2207
    -0.1904  -0.1760  -0.1266   0.0257   0.0275   0.0718   0.3395   0.3524
     0.6768   0.6998   0.7257   0.7281   0.7741   0.7809   0.9298   0.9567
     1.0643   1.0672   1.1840   1.6755   1.7112   1.7228   1.7581   1.7588
     1.8779   1.9039   1.9473   1.9712   2.1316   2.1393   2.4145   2.4392
     2.4609   2.4681   2.8864   2.9081   2.9239   2.9319   2.9416   2.9459
     3.0078   3.0084   3.1358   3.2759   3.2971   3.4736   3.4812   3.5832
     3.6499   3.6661   3.9440   3.9573   4.0096   4.0133   4.0218   4.1159
     4.1558   4.1580   4.1736   4.4551   4.4567   4.4872   4.4927   4.6032
     4.6081   4.6601   4.7008   4.8933   5.2905   5.5410   5.5558   5.6058
     5.6658   5.7573   5.7718   5.8174   5.8333   5.8498   5.8508   5.8634
     5.9586   5.9701   6.0857   6.1413   6.2367   6.2436   6.2522   6.2600
     6.2665   6.2720   6.2906   6.3744   6.4043   6.5025   6.5316   6.5530

     the Fermi energy is     1.0113 ev

!    total energy              =   -7379.98941668 Ry
     Harris-Foulkes estimate   =   -7379.98941668 Ry
     estimated scf accuracy    <          8.8E-12 Ry

     The total energy is the sum of the following terms:

     one-electron contribution =  -48835.03150872 Ry
     hartree contribution      =   24968.45435826 Ry
     xc contribution           =   -3556.24545136 Ry
     ewald contribution        =   20042.83197844 Ry
     smearing contrib. (-TS)   =       0.00120670 Ry

     convergence has been achieved in  14 iterations

     negative rho (up, down):  1.970E+00 0.000E+00

     Forces acting on atoms (Ry/au):

     atom    1 type  3   force =    -0.00033266    0.00012936   -0.00018360
     atom    2 type  2   force =     0.00006661   -0.00020571    0.00001410
     atom    3 type  2   force =     0.00054070   -0.00076786    0.00018871
     atom    4 type  1   force =    -0.00021420   -0.00034447    0.01834905
     atom    5 type  1   force =     0.00011829   -0.00020417    0.01830223
     atom    6 type  1   force =    -0.00010016   -0.00020111    0.01830315
     atom    7 type  1   force =     0.00000782    0.00011705    0.01804413
     atom    8 type  1   force =    -0.00000323   -0.00018661    0.01807795
     atom    9 type  1   force =     0.00020403    0.00011133    0.01819039
     atom   10 type  1   force =    -0.00022404    0.00000301    0.01866050
     atom   11 type  1   force =    -0.00017731   -0.00000617    0.01802477
     atom   12 type  1   force =     0.00018746    0.00000521    0.01801862
     atom   13 type  1   force =    -0.00001431   -0.00013595    0.01804873
     atom   14 type  1   force =     0.00000852    0.00017135    0.01797073
     atom   15 type  1   force =     0.00021639   -0.00013202    0.01824178
     atom   16 type  1   force =    -0.00021691    0.00013504    0.01822861
     atom   17 type  1   force =     0.00013411    0.00000956    0.01795588
     atom   18 type  1   force =    -0.00011833   -0.00000276    0.01800330
     atom   19 type  1   force =    -0.00014648    0.00022124    0.01818053
     atom   20 type  1   force =    -0.00000553    0.00021350    0.01863740
     atom   21 type  1   force =     0.00032960    0.00021740    0.01836253
     atom   22 type  1   force =    -0.00016256   -0.00045904   -0.00235845
     atom   23 type  1   force =     0.00002143    0.00020887   -0.00232040
     atom   24 type  1   force =     0.00050557   -0.00044283   -0.00234497
     atom   25 type  1   force =    -0.00039305   -0.00036158   -0.00264523
     atom   26 type  1   force =    -0.00003644    0.00003178   -0.00255905
     atom   27 type  1   force =     0.00009605    0.00002717   -0.00261996
     atom   28 type  1   force =     0.00057366    0.00002097   -0.00232324
     atom   29 type  1   force =    -0.00001220    0.00009318   -0.00304469
     atom   30 type  1   force =    -0.00032683   -0.00000524   -0.00228898
     atom   31 type  1   force =    -0.00033538    0.00031153   -0.00263418
     atom   32 type  1   force =     0.00007094    0.00005652   -0.00271712
     atom   33 type  1   force =    -0.00004289    0.00003257   -0.00273426
     atom   34 type  1   force =    -0.00003002    0.00010388   -0.00243064
     atom   35 type  1   force =    -0.00000612   -0.00066006   -0.00234893
     atom   36 type  1   force =     0.00039907    0.00011355   -0.00244417
     atom   37 type  1   force =    -0.00037131    0.00042041   -0.00216876
     atom   38 type  1   force =    -0.00031289    0.00020815   -0.00263550
     atom   39 type  1   force =     0.00033002    0.00026801   -0.00264274
     atom   40 type  1   force =    -0.00034457   -0.00028968    0.00137321
     atom   41 type  1   force =     0.00009271   -0.00070474    0.00095251
     atom   42 type  1   force =    -0.00006062   -0.00066868    0.00104080
     atom   43 type  1   force =    -0.00035444    0.00001571    0.00152257
     atom   44 type  1   force =     0.00108594    0.00021607    0.00200280
     atom   45 type  1   force =    -0.00130290    0.00017386    0.00229373
     atom   46 type  1   force =    -0.00036224   -0.00002560    0.00143333
     atom   47 type  1   force =     0.00016302    0.00014561    0.00136680
     atom   48 type  1   force =    -0.00010519    0.00018016    0.00134960
     atom   49 type  1   force =    -0.00038750    0.00003993    0.00096013
     atom   50 type  1   force =     0.00001312    0.00105657    0.00176462
     atom   51 type  1   force =     0.00067137    0.00003436    0.00100764
     atom   52 type  1   force =    -0.00018370   -0.00012000    0.00132187
     atom   53 type  1   force =    -0.00002944   -0.00124833    0.00250931
     atom   54 type  1   force =     0.00053437   -0.00008619    0.00126499
     atom   55 type  1   force =     0.00002008    0.00037130    0.00144604
     atom   56 type  1   force =     0.00001111    0.00034973    0.00154945
     atom   57 type  1   force =     0.00029551    0.00035314    0.00141036
     atom   58 type  1   force =    -0.00010660   -0.00029623   -0.01692072
     atom   59 type  1   force =    -0.00002815    0.00014451   -0.01681839
     atom   60 type  1   force =     0.00027151   -0.00028659   -0.01714461
     atom   61 type  1   force =    -0.00020082   -0.00009491   -0.01701376
     atom   62 type  1   force =    -0.00178233   -0.00178093   -0.01763888
     atom   63 type  1   force =     0.00158622   -0.00146904   -0.01758124
     atom   64 type  1   force =     0.00024796   -0.00014943   -0.01685803
     atom   65 type  1   force =     0.00046806    0.00072122   -0.01500209
     atom   66 type  1   force =    -0.00003890   -0.00010835   -0.01704713
     atom   67 type  1   force =    -0.00020340    0.00004242   -0.01709246
     atom   68 type  1   force =    -0.00189503    0.00175040   -0.01862607
     atom   69 type  1   force =     0.00171189    0.00142941   -0.01839496
     atom   70 type  1   force =    -0.00019511    0.00019104   -0.01691829
     atom   71 type  1   force =     0.00000069    0.00011392   -0.01738027
     atom   72 type  1   force =     0.00035138    0.00017547   -0.01708913
     atom   73 type  1   force =    -0.00017760    0.00019243   -0.01725485
     atom   74 type  1   force =    -0.00009333    0.00026054   -0.01706752
     atom   75 type  1   force =     0.00009956    0.00025587   -0.01707956

     Total force =     0.001061     Total SCF correction =     0.000000

     bfgs converged in  49 scf cycles and  47 bfgs steps
     (criteria: energy <  1.0E-04, force <  1.0E-03)

     End of BFGS Geometry Optimization

     Final energy   =   -7379.9894166755 Ry
Begin final coordinates

ATOMIC_POSITIONS (angstrom)
O        6.255588835   4.185312924   9.050263119
H        5.514893606   3.551703565   9.124637049
H        7.055878545   3.657093804   9.236198434
Au       0.000000000   0.000000000   0.000000000    0   0   0
Au       4.253738000   0.000000000   0.000000000    0   0   0
Au       8.507476000   0.000000000   0.000000000    0   0   0
Au       2.126869000   2.126869000   0.000000000    0   0   0
Au       6.380607000   2.126869000   0.000000000    0   0   0
Au      10.634344000   2.126869000   0.000000000    0   0   0
Au       0.000000000   4.253738000   0.000000000    0   0   0
Au       4.253738000   4.253738000   0.000000000    0   0   0
Au       8.507476000   4.253738000   0.000000000    0   0   0
Au       2.126869000   6.380607000   0.000000000    0   0   0
Au       6.380607000   6.380607000   0.000000000    0   0   0
Au      10.634344000   6.380607000   0.000000000    0   0   0
Au       0.000000000   8.507476000   0.000000000    0   0   0
Au       4.253738000   8.507476000   0.000000000    0   0   0
Au       8.507476000   8.507476000   0.000000000    0   0   0
Au       2.126869000  10.634344000   0.000000000    0   0   0
Au       6.380607000  10.634344000   0.000000000    0   0   0
Au      10.634344000  10.634344000   0.000000000    0   0   0
Au       2.126869000   0.000000000   2.126869000    0   0   0
Au       6.380607000   0.000000000   2.126869000    0   0   0
Au      10.634344000   0.000000000   2.126869000    0   0   0
Au       0.000000000   2.126869000   2.126869000    0   0   0
Au       4.253738000   2.126869000   2.126869000    0   0   0
Au       8.507476000   2.126869000   2.126869000    0   0   0
Au       2.126869000   4.253738000   2.126869000    0   0   0
Au       6.380607000   4.253738000   2.126869000    0   0   0
Au      10.634344000   4.253738000   2.126869000    0   0   0
Au       0.000000000   6.380607000   2.126869000    0   0   0
Au       4.253738000   6.380607000   2.126869000    0   0   0
Au       8.507476000   6.380607000   2.126869000    0   0   0
Au       2.126869000   8.507476000   2.126869000    0   0   0
Au       6.380607000   8.507476000   2.126869000    0   0   0
Au      10.634344000   8.507476000   2.126869000    0   0   0
Au       0.000000000  10.634344000   2.126869000    0   0   0
Au       4.253738000  10.634344000   2.126869000    0   0   0
Au       8.507476000  10.634344000   2.126869000    0   0   0
Au      -0.000231899  -0.000231899   4.257900259    0   0   0
Au       4.253734608  -0.000230451   4.257893418    0   0   0
Au       8.507492151  -0.000233495   4.257904766    0   0   0
Au      -0.000230451   4.253734608   4.257893418    0   0   0
Au       4.253734872   4.253734872   4.257887922    0   0   0
Au       8.507489223   4.253735714   4.257899972    0   0   0
Au      -0.000233495   8.507492151   4.257904766    0   0   0
Au       4.253735714   8.507489223   4.257899972    0   0   0
Au       8.507490970   8.507490970   4.257910325    0   0   0
Au       2.126854284   2.126854284   4.257906940    0   0   0
Au       6.380600017   2.126855061   4.257899048    0   0   0
Au      10.634586601   2.126852368   4.257903711    0   0   0
Au       2.126855061   6.380600017   4.257899048    0   0   0
Au       6.380601302   6.380601302   4.257890644    0   0   0
Au      10.634584097   6.380601789   4.257895413    0   0   0
Au       2.126852368  10.634586601   4.257903711    0   0   0
Au       6.380601789  10.634584097   4.257895413    0   0   0
Au      10.634585069  10.634585069   4.257900809    0   0   0
Au       2.126863116  -0.000141616   6.373929777    0   0   0
Au       6.380603693  -0.000142418   6.373934377    0   0   0
Au      10.634494877  -0.000142245   6.373820138    0   0   0
Au      -0.000141616   2.126863116   6.373929777    0   0   0
Au       4.253733333   2.126865567   6.374044528    0   0   0
Au       8.507479448   2.126865512   6.374047422    0   0   0
Au       2.126865567   4.253733333   6.374044528    0   0   0
Au       6.380604810   4.253735890   6.374044687    0   0   0
Au      10.634492342   4.253734512   6.373939184    0   0   0
Au      -0.000142418   6.380603693   6.373934377    0   0   0
Au       4.253735890   6.380604810   6.374044687    0   0   0
Au       8.507478446   6.380605875   6.374047284    0   0   0
Au       2.126865512   8.507479448   6.374047422    0   0   0
Au       6.380605875   8.507478446   6.374047284    0   0   0
Au      10.634491790   8.507480400   6.373938586    0   0   0
Au      -0.000142245  10.634494877   6.373820138    0   0   0
Au       4.253734512  10.634492342   6.373939184    0   0   0
Au       8.507480400  10.634491790   6.373938586    0   0   0
End final coordinates



     Writing output data file 6510999.save
 
     init_run     :     44.70s CPU     45.43s WALL (       1 calls)
     electrons    :  81920.23s CPU  83131.85s WALL (      49 calls)
     update_pot   :    130.71s CPU    138.36s WALL (      48 calls)
     forces       :   1238.18s CPU   1281.15s WALL (      49 calls)

     Called by init_run:
     wfcinit      :     38.00s CPU     38.19s WALL (       1 calls)
     potinit      :      1.35s CPU      1.39s WALL (       1 calls)

     Called by electrons:
     c_bands      :  65587.27s CPU  66065.39s WALL (     881 calls)
     sum_band     :  13138.00s CPU  13507.64s WALL (     881 calls)
     v_of_rho     :    851.49s CPU    855.47s WALL (     885 calls)
     newd         :   2094.99s CPU   2465.57s WALL (     885 calls)
     mix_rho      :    200.37s CPU    202.38s WALL (     881 calls)

     Called by c_bands:
     init_us_2    :    254.51s CPU    255.14s WALL (    1763 calls)
     cegterg      :  63966.70s CPU  64442.86s WALL (     881 calls)

     Called by sum_band:
     sum_band:bec :      5.87s CPU      5.88s WALL (     881 calls)
     addusdens    :   3142.67s CPU   3497.41s WALL (     881 calls)

     Called by *egterg:
     h_psi        :  34804.10s CPU  34852.20s WALL (    3011 calls)
     s_psi        :   6617.52s CPU   6617.62s WALL (    3011 calls)
     g_psi        :     71.32s CPU     71.36s WALL (    2129 calls)
     cdiaghg      :   3690.88s CPU   3695.47s WALL (    2917 calls)

     Called by h_psi:
     add_vuspsi   :   6572.62s CPU   6572.82s WALL (    3011 calls)

     General routines
     calbec       :  10123.02s CPU  10123.83s WALL (    4088 calls)
     fft          :    866.98s CPU    870.06s WALL (   14731 calls)
     ffts         :     30.76s CPU     30.98s WALL (    1766 calls)
     fftw         :  18829.70s CPU  18873.36s WALL ( 2250276 calls)
     interpolate  :    149.36s CPU    150.02s WALL (    1766 calls)
     davcio       :      0.04s CPU      4.66s WALL (      49 calls)
 
     Parallel routines
     fft_scatter  :   6292.78s CPU   6322.71s WALL ( 2266773 calls)
 
     PWSCF        :    23h11m CPU       23h36m WALL

 
   This run was terminated on:  13:56:39  31Jan2017            

=------------------------------------------------------------------------------=
   JOB DONE.
=------------------------------------------------------------------------------=
